242
Lattice="15.08953948 -0.01707778 0.00811373 -7.55417034 13.04375772 -0.02666618 0.02627916 -0.01964463 16.51382282" Properties=species:S:1:pos:R:3:aims_hirshfeld:R:1:aims_forces:R:3:atomic_multipoles:R:9 aims_energy=-970167.221346969 pbc="T T T"
Si       2.41717434      -0.01561483       3.63821027       0.53742636      -0.01667894      -0.00356624      -0.01185186       0.41676013       0.00262428      -0.00045963       0.00240718       0.00262295       0.00748490      -0.00418534       0.00168942       0.00091151
Si      -1.17874488       2.06430112       1.82409337       0.53976396       0.00345554      -0.02216413       0.00030427       0.41911850       0.00460943       0.00310337      -0.00389533      -0.01252794      -0.00748465      -0.01113192      -0.00614170      -0.00026966
Si       1.33122568       2.26347919       0.00762032       0.53698514       0.01001690       0.01855044      -0.00352736       0.41716404      -0.00159777      -0.00041087      -0.00119135       0.00489376      -0.00616296      -0.00749601       0.00755640      -0.00624874
O        1.42074465       1.08747054       4.31485641      -0.26553384       0.08956860       0.01839282       0.04570977      -0.20594151       0.00650054      -0.01255016      -0.02068627       0.03359631      -0.09232495       0.00303696       0.02797595       0.03021244
O        3.32163469       0.64416034       2.44229378      -0.26518461      -0.04563905       0.06779378       0.05064661      -0.20404268      -0.02218411      -0.01571390       0.00336287      -0.04706332       0.06858622      -0.00338500       0.06588951       0.02044354
O        2.80564833       2.56947991       0.64062040      -0.26593392      -0.03405793      -0.07829018       0.04197839      -0.20641235       0.01561481      -0.01377030       0.01827642       0.00764157       0.02635124      -0.00068773      -0.08756372      -0.04627553
O        0.30906718       1.79738557       1.19774912      -0.26548511      -0.03051059       0.07305183      -0.04875001      -0.20532433      -0.01412103       0.01894929       0.01810774      -0.00367543       0.02602754       0.00053987       0.08886606      -0.05048895
O       -1.12801594       3.26602506       2.94114196      -0.26546281       0.08965960      -0.01797549      -0.03678061      -0.20562676      -0.00778752       0.01645827      -0.02120388      -0.03257753      -0.08901956       0.00929267      -0.02705847       0.02921163
O        0.82810419       3.64714720       4.76854338      -0.26615199      -0.05815883      -0.06009117      -0.04560849      -0.20468690       0.01963398       0.01535876       0.00455380       0.04998598       0.07725961       0.00791387      -0.06464618       0.01576345
Si       2.41478567       0.01292230       9.16025842       0.53808172      -0.01624475       0.00836707       0.00495497       0.41595460       0.00392448       0.00386095       0.00441235       0.00267873       0.00504920      -0.01552317       0.00214985       0.00683951
Si      -1.18220416       2.06251251       7.33732101       0.53931805       0.00928031      -0.00805199       0.00374178       0.41798983       0.00222571      -0.00055018       0.00123639      -0.00328665      -0.00505291      -0.00874251      -0.00480814      -0.00780734
Si       1.31164613       2.24957929       5.46007065       0.53852067      -0.00102972       0.00977705       0.00326332       0.41635679       0.00005329       0.00106677      -0.00381131       0.01028918      -0.00206369      -0.00799989       0.00812213      -0.00483420
O        1.46027945       1.17069321       9.81106938      -0.26541882       0.07876581       0.00259129       0.05194466      -0.20209969       0.01147498      -0.01978778      -0.01636494       0.04984041      -0.09755915      -0.00309257       0.02394437       0.02621692
O        3.37944400       0.62303403       7.99211295      -0.26467221      -0.05383730       0.07733813       0.03748362      -0.20178086      -0.01978118      -0.01461683       0.00337273      -0.04737625       0.07400534      -0.00014820       0.07222654       0.01356339
O        2.76815582       2.50896185       6.14660663      -0.26454292      -0.01762925      -0.08555538       0.04178026      -0.20420478       0.01518110      -0.01158803       0.01273780       0.01251628       0.01874207       0.01158321      -0.09539037      -0.05079779
O        0.25108701       1.77338601       6.61258213      -0.26552858      -0.02790357       0.08240201      -0.04332608      -0.20569889      -0.01312245       0.01215453       0.01595243      -0.01017851       0.01827799       0.00134527       0.09663302      -0.04718547
O       -1.04410789       3.21051327       8.49615533      -0.26581977       0.08383721      -0.01208683      -0.04364547      -0.20445289      -0.00645610       0.01317225      -0.01846595      -0.03886799      -0.09615205       0.00439936      -0.03334569       0.03276535
O        0.80751922       3.68995037      10.39707964      -0.26873344      -0.04477630      -0.06574836      -0.05224356      -0.21045064       0.02052428       0.01392893       0.00567740       0.05074604       0.06341005      -0.00616684      -0.06825126       0.02622861
Si       2.41934016      -0.06467633      14.72446112       0.53786405      -0.01905741      -0.00809947      -0.00336347       0.41708170       0.00101089       0.00129412       0.00210851       0.00390078       0.00941606      -0.00779585       0.00054737       0.00823139
Si      -1.22231651       1.98585385      12.80974134       0.54176144       0.00533470      -0.01398353       0.00525202       0.42176362      -0.00450176       0.00467029      -0.00250746      -0.00694827      -0.00336623      -0.00398987      -0.00565158      -0.00552343
Si       1.31259454       2.26277653      11.02094051       0.53941087       0.01773062       0.01860844      -0.00323328       0.41827891      -0.00144187       0.00008594       0.00034100       0.00747493      -0.00486741      -0.00783610       0.00369855      -0.00517068
O        1.44039798       1.06389435      15.38855284      -0.26642196       0.08526667       0.01447649       0.04181807      -0.20621488       0.00663479      -0.01515148      -0.02016325       0.03444379      -0.09215618       0.01004025       0.02957047       0.03248186
O        3.33714154       0.58936604      13.53564877      -0.26580713      -0.04964860       0.06638347       0.04828620      -0.20525216      -0.02266943      -0.01621009       0.00329634      -0.04286209       0.06708445      -0.00006816       0.06698446       0.01946621
O        2.74897514       2.52227457      11.75365058      -0.26715320      -0.02898956      -0.08724353       0.03972586      -0.21116165       0.00938019      -0.01290100       0.01259469       0.00626667       0.02254524       0.00810261      -0.09738444      -0.04833277
O        0.23158088       1.70139462      12.12143497      -0.26672617      -0.02583425       0.08460649      -0.03263633      -0.20779020      -0.01311038       0.01333324       0.01803900      -0.01354781       0.01846740       0.01043627       0.09206549      -0.04390179
O       -1.08334110       3.11304052      13.99410041      -0.26407556       0.08290940      -0.00639023      -0.04528221      -0.20224003      -0.00799222       0.01274759      -0.01938945      -0.03810452      -0.09691025      -0.00409216      -0.02875882       0.02904898
O        0.83078350       3.62674219      15.82044752      -0.26501736      -0.05580937      -0.06576827      -0.04130985      -0.20467383       0.01862963       0.01713726       0.00477763       0.04582753       0.07267292       0.00624572      -0.06750279       0.01232993
Si      -0.12358692       4.35552070       3.64422829       0.54023286      -0.01086957       0.01037993       0.00563431       0.41908842      -0.00138238      -0.00155175      -0.00318667      -0.00084983       0.00184067      -0.01184607      -0.00360769       0.01279633
Si      -3.66811104       6.37347837       1.89803145       0.53822549       0.00217969      -0.01378486       0.00876763       0.41592471       0.00057624       0.00361930       0.00206332      -0.01214040      -0.00516912      -0.00845744      -0.00437932      -0.00224897
Si      -1.22604378       6.58512081      -0.00599965       0.53544139       0.00617192       0.01612092      -0.00421531       0.41719997      -0.00161103      -0.00007505      -0.00335457       0.00295806       0.00061011      -0.01209116       0.00846167      -0.00246491
O       -1.01776885       5.50940292       4.37864049      -0.26588748       0.08039501       0.00951287       0.04120237      -0.20468485       0.00536195      -0.01302956      -0.01768026       0.04106344      -0.09464363       0.00093255       0.03478872       0.03650671
O        0.82750779       5.01765157       2.48238708      -0.26520872      -0.05466612       0.06984620       0.04011663      -0.20559776      -0.02222931      -0.01332837       0.00547030      -0.04348319       0.06954071       0.00507472       0.06376297       0.01808558
O        0.25841933       6.88320517       0.61861502      -0.26916046      -0.03161551      -0.07337392       0.04747379      -0.21136451       0.01232303      -0.01244500       0.01616099       0.01013485       0.01942152      -0.00458351      -0.08711215      -0.04884647
O       -2.21820036       6.08681627       1.19403289      -0.26468507      -0.02753117       0.07894763      -0.04501859      -0.20347489      -0.01558092       0.01762690       0.01620526      -0.00370782       0.02427562      -0.00075900       0.09329243      -0.04361015
O       -3.53904504       7.53202775       3.04491044      -0.26554135       0.08416456      -0.01209390      -0.04816200      -0.20531315      -0.00688719       0.01695498      -0.02091899      -0.04026926      -0.09046531       0.00539095      -0.02563380       0.03193592
O       -1.60723704       8.06566480       4.84221758      -0.26590019      -0.05569997      -0.06662815      -0.04320239      -0.20668581       0.02293793       0.01573198       0.00192034       0.04142004       0.06454995      -0.00434814      -0.06535003       0.01762306
Si      -0.09448645       4.34035582       9.19247621       0.53941250      -0.01662242      -0.00624374       0.00279567       0.41783703      -0.00130344       0.00000514       0.00119581      -0.00434190       0.00705488      -0.00826620      -0.00092310       0.00821849
Si      -3.71711179       6.40576249       7.32188909       0.53870264       0.00110672      -0.01520648      -0.00169198       0.41785493       0.00100380      -0.00233809       0.00022400      -0.00550820      -0.00342901      -0.00635533      -0.00657498      -0.00763560
Si      -1.15062578       6.65725944       5.54072860       0.54056632       0.00860583       0.00868656       0.00929292       0.42051443      -0.00267466       0.00033190       0.00503488       0.00145532      -0.00430587      -0.01076914       0.00189861      -0.00301789
O       -1.07048353       5.49305311       9.82254580      -0.26475717       0.07785324       0.01743012       0.05453191      -0.20278854       0.00649518      -0.01852802      -0.01745695       0.04526225      -0.09386368       0.00517750       0.02939067       0.03145011
O        0.90228713       4.98722666       8.06670297      -0.26598774      -0.06119501       0.06766937       0.04276759      -0.20491405      -0.02353649      -0.01604580       0.00809986      -0.04127186       0.06732730       0.00511268       0.07876637       0.02422236
O        0.26870333       6.93431413       6.31364067      -0.26616351      -0.02314158      -0.08629010       0.03001279      -0.20545971       0.01177931      -0.01291736       0.01360452       0.01554350       0.02095260       0.00986020      -0.09882456      -0.04780980
O       -2.25784285       6.15366885       6.63514914      -0.26622730      -0.02525193       0.08195386      -0.03705200      -0.20656579      -0.01368871       0.01116688       0.01304819      -0.01562395       0.01819287       0.00731808       0.09565871      -0.04988121
O       -3.62968620       7.57508514       8.46752341      -0.26585139       0.08763274      -0.01192890      -0.04288113      -0.20455395      -0.00841417       0.01634683      -0.01994543      -0.03642965      -0.09462836       0.01076784      -0.02812986       0.02880082
O       -1.70302341       8.05052543      10.28039221      -0.26664955      -0.05874033      -0.06475455      -0.04407337      -0.20589099       0.02203743       0.01234256       0.00162055       0.04042763       0.07088728       0.00221851      -0.07176747       0.01935699
Si      -0.15541707       4.26334711      14.68915497       0.54232803      -0.01108849      -0.00794943      -0.00831461       0.41978896      -0.00501045      -0.00423851      -0.00244210       0.00032279       0.00111778      -0.00020734      -0.01134494       0.01447873
Si      -3.79654097       6.38636835      12.80107712       0.53849883       0.00207587      -0.00783807      -0.00566655       0.41684742       0.00281372      -0.00164695      -0.00113311      -0.00490378      -0.00282245      -0.00553862      -0.00825211      -0.00377344
Si      -1.26500709       6.63805334      10.96820368       0.53991647       0.01058695       0.00626837       0.00637245       0.41821862      -0.00205180      -0.00214705      -0.00057734       0.00798425      -0.00201646      -0.01000077       0.01334568       0.00662223
O       -1.12464492       5.39461379      15.35897024      -0.26622866       0.08483602       0.01380524       0.04342592      -0.20534590       0.00705352      -0.01460812      -0.02341547       0.03083444      -0.09223988       0.01106021       0.03147096       0.03047831
O        0.78841503       4.98623630      13.53913587      -0.25935252      -0.05372259       0.07944873       0.04177820      -0.19616645      -0.03001855      -0.01475152       0.00544220      -0.03880541       0.06944590       0.00645413       0.05966437       0.02791368
O        0.15286623       6.91826462      11.75282322      -0.26382693      -0.02403258      -0.07976930       0.04462631      -0.20269745       0.01225400      -0.01803708       0.00943664       0.01168588       0.01536326      -0.00690420      -0.09935241      -0.04647593
O       -2.36427395       6.12535306      12.05970235      -0.26657621      -0.02079340       0.08654008      -0.03255959      -0.20530568      -0.01354240       0.01203645       0.01211568      -0.01781577       0.01540015       0.01130682       0.10361161      -0.04720670
O       -3.64790059       7.51398253      13.97802924      -0.26537343       0.08411361      -0.01151015      -0.04535934      -0.20409828      -0.00759943       0.01598501      -0.01965702      -0.04006165      -0.09535471       0.00319334      -0.03021812       0.02570942
O       -1.73091028       7.94927197      15.81690761      -0.26698184      -0.04994456      -0.06454884      -0.04403115      -0.20808707       0.02064609       0.01667582      -0.00072314       0.05124482       0.06893496       0.00252448      -0.06425972       0.01308878
Si      -2.55896017       8.68690885       3.66158917       0.53952836      -0.02212747       0.00395526       0.00057699       0.41884517       0.00245403      -0.00010595       0.00264072       0.00270637       0.00566797      -0.00969963       0.00014885       0.00730301
Si      -6.19668908      10.70823879       1.83563744       0.53806744       0.00899984      -0.01130857       0.00677211       0.41699562      -0.00191711      -0.00211880       0.00001121      -0.00853804      -0.00303847      -0.00590339      -0.00279522      -0.00444697
Si      -3.69740033      10.94679578      -0.00821994       0.53802503       0.00592557       0.01476891      -0.00035509       0.41789292       0.00114438       0.00239678       0.00057410       0.00466751      -0.00038150      -0.00591364       0.00584438      -0.00583395
O       -3.50787387       9.86011682       4.29235770      -0.26563757       0.08362782       0.01110619       0.04796375      -0.20472893       0.00600700      -0.01451042      -0.02027612       0.04254202      -0.09414629       0.00584642       0.02264688       0.03377384
O       -1.61054635       9.27859275       2.45809759      -0.26522929      -0.04837886       0.07011645       0.04151394      -0.20529013      -0.02316199      -0.01483167       0.00108176      -0.03942439       0.06586574      -0.00278733       0.06627589       0.01544846
O       -2.21692211      11.18225522       0.64366998      -0.26610568      -0.02999131      -0.08089027       0.04146808      -0.20682939       0.01501799      -0.01073384       0.01131827       0.01406475       0.02167932       0.00727237      -0.09101144      -0.05373015
O       -4.73718147      10.44445480       1.15032684      -0.26490915      -0.02991792       0.08029786      -0.04138056      -0.20524007      -0.01370121       0.01612066       0.01735511      -0.01145136       0.01874385      -0.00017615       0.09163240      -0.04666975
O       -6.08988912      11.85336798       2.99555467      -0.26545770       0.08286112      -0.00989828      -0.04902987      -0.20455213      -0.00778635       0.01752098      -0.01996825      -0.04060768      -0.09337712       0.00393493      -0.02290436       0.03350669
O       -4.12173409      12.42011444       4.74382865      -0.26482962      -0.05807438      -0.06507233      -0.03869647      -0.20351846       0.02204714       0.01439292       0.00386027       0.03788185       0.06690200       0.00503314      -0.07336912       0.01546872
Si      -2.65660375       8.71236209       9.11985358       0.53875149      -0.01697499       0.00672576      -0.00278525       0.41736921       0.00257873      -0.00169300       0.00024469      -0.00252995       0.00370402      -0.00755210       0.00345445       0.00923660
Si      -6.14250209      10.78770236       7.28212792       0.53585010       0.00411299      -0.01052375      -0.00952655       0.41572515       0.00716477      -0.00732668       0.00118713       0.00532201      -0.00356272      -0.01122920      -0.00484109      -0.00740574
Si      -3.62336077      11.02694425       5.43689829       0.53845776       0.00250854       0.00894446      -0.00093593       0.41718449      -0.00119086      -0.00232627       0.00049145       0.01327987      -0.00479891      -0.00809696       0.00505991      -0.00476682
O       -3.59942989       9.85827421       9.80390370      -0.26491041       0.08088520       0.01248299       0.04960955      -0.20393934       0.00657167      -0.01593774      -0.01971162       0.03919867      -0.09535972       0.00228847       0.02826006       0.02880119
O       -1.70287722       9.35125631       7.95177719      -0.26536218      -0.04744606       0.06619219       0.04858956      -0.20558237      -0.02226378      -0.01755639       0.00260414      -0.04806642       0.06136483       0.00051202       0.06729767       0.01814637
O       -2.16605993      11.29144397       6.12997173      -0.26480062      -0.02872930      -0.07843402       0.04509751      -0.20465872       0.01463130      -0.01799428       0.01737208       0.00900455       0.02138204       0.00457365      -0.09162516      -0.04138986
O       -4.68180200      10.56034837       6.59288908      -0.26493540      -0.03141400       0.07833051      -0.04596108      -0.20327342      -0.01524649       0.01363528       0.01506200      -0.01284871       0.02497460       0.00526290       0.09928413      -0.05090903
O       -6.10860973      11.93282922       8.45330416      -0.26710327       0.08799691      -0.00599289      -0.03813600      -0.20686914      -0.00675656       0.01830520      -0.02012055      -0.04098205      -0.09119208       0.01216602      -0.02637075       0.02846602
O       -4.22104739      12.39961116      10.32303965      -0.26549995      -0.05045987      -0.06595979      -0.04877393      -0.20484569       0.02338162       0.01536124       0.00285585       0.04454753       0.06775392      -0.00100076      -0.06550223       0.01819535
Si      -2.67265802       8.63101056      14.66313541       0.53713468      -0.01424084      -0.00370211       0.00315321       0.41658415      -0.00286387       0.00140349       0.00070509       0.00066785       0.00501063      -0.00509800      -0.00296355       0.01085361
Si      -6.24011116      10.71827426      12.85400569       0.54028158       0.00294567      -0.01110568      -0.00178597       0.41857458      -0.00152144      -0.00269416       0.00085188      -0.00289329      -0.00343142      -0.00668974       0.00117697      -0.00594106
Si      -3.73951265      10.98376057      10.98283759       0.54012739       0.00525941       0.00628191      -0.00072183       0.41877222      -0.00002836       0.00050070       0.00030111       0.00753428      -0.00160811      -0.00884548       0.00433509      -0.00234888
O       -3.61263156       9.78621781      15.33031829      -0.26581126       0.08261995       0.00710755       0.04274823      -0.20462271       0.00919437      -0.01748005      -0.02055734       0.03514016      -0.09458172       0.00727706       0.02723171       0.02812926
O       -1.70881133       9.28885399      13.50883197      -0.26758861      -0.05598743       0.06463668       0.04468769      -0.20768108      -0.02011154      -0.01389785       0.00032613      -0.03682769       0.06850711       0.00737317       0.07338021       0.01788349
O       -2.30503049      11.23989181      11.72794673      -0.26504821      -0.02360367      -0.08575482       0.03633655      -0.20454072       0.01427646      -0.01316162       0.01340028       0.01478199       0.01932421       0.00507906      -0.09703885      -0.04619680
O       -4.82480704      10.45119939      12.08876862      -0.26564550      -0.02538245       0.08731285      -0.03112264      -0.20485187      -0.01408203       0.01010387       0.01469801      -0.01490802       0.01819889       0.00712400       0.10154984      -0.04433136
O       -6.08650556      11.81222488      14.05745427      -0.26583782       0.07868403      -0.00547273      -0.05072853      -0.20463259      -0.00746906       0.01824266      -0.01757856      -0.04167596      -0.09355904      -0.00066949      -0.02834936       0.02761129
O       -4.15917301      12.34476128      15.84944365      -0.26511918      -0.05450331      -0.06786091      -0.04439068      -0.20581934       0.02276395       0.01528656       0.00499259       0.04329071       0.06363513       0.00185768      -0.06578931       0.01532538
Si       7.51084749      -0.04970811       3.60319496       0.53803978      -0.02052037      -0.01101503      -0.00134878       0.41654454      -0.00492011       0.00370154       0.00010197       0.00091024       0.00657967      -0.01230814      -0.00197232       0.01679272
Si       3.84288416       2.05299042       1.79923998       0.53746067       0.01308909      -0.01775899       0.00459244       0.41626665      -0.00190126       0.00020939       0.00117058      -0.01009942      -0.00251021      -0.00733175      -0.00388050      -0.00440709
Si       6.37561918       2.28211005      -0.01938441       0.53966715       0.00419329       0.00608383      -0.00255189       0.41919020       0.00366405       0.00166493       0.00171100       0.00488206       0.00044317      -0.00892456       0.00311167      -0.00774492
O        6.52397158       1.11721707       4.17965791      -0.26484185       0.07509694       0.00399972       0.05642514      -0.20492277       0.00872587      -0.01992857      -0.02121794       0.04228906      -0.08468947      -0.00212939       0.02867400       0.02469640
O        8.48435979       0.59051153       2.45480154      -0.26677764      -0.05510678       0.06867866       0.04390575      -0.20769857      -0.02380419      -0.01354983       0.00459332      -0.03942042       0.06240282       0.00207279       0.06934834       0.01430338
O        7.84214965       2.51780520       0.66331696      -0.26520757      -0.03136163      -0.07583129       0.04481701      -0.20470394       0.01350579      -0.01213160       0.01576881       0.01286757       0.02058967       0.00086146      -0.09450256      -0.04761041
O        5.31248667       1.80768638       1.12792822      -0.26564534      -0.03243465       0.07817666      -0.04319960      -0.20601727      -0.01427893       0.01372841       0.01464619      -0.01198978       0.01930961      -0.00181066       0.09204777      -0.05208166
O        3.93016388       3.18749380       2.97428569      -0.26569633       0.08611161      -0.01056778      -0.04506578      -0.20388850      -0.00927206       0.01719917      -0.02131681      -0.03726185      -0.09726901       0.00114069      -0.02502894       0.02726628
O        5.85499426       3.63887037       4.79733965      -0.26660037      -0.05154297      -0.06383287      -0.04679269      -0.20131754       0.02258005       0.02481041      -0.00062398       0.04191809       0.07449396       0.02447052      -0.07212129       0.01747373
Si       7.38327916      -0.00452763       9.20459066       0.53613119      -0.01739833      -0.00467409      -0.00069475       0.41661612       0.00116374      -0.00318870       0.00098222      -0.00606190      -0.00022427      -0.01199692       0.00743359       0.00688570
Si       3.87635367       1.97202502       7.21798013       0.52103452      -0.00960901      -0.03651203      -0.02698290       0.40942772      -0.00621526      -0.00353252      -0.00835108      -0.00895008       0.00328978      -0.00199242      -0.01276913      -0.00017157
Si       6.36482253       2.20056641       5.39552363       0.52591961       0.01866068       0.00691049      -0.01151610       0.41625643       0.00088798      -0.00018821       0.00537721       0.00001116      -0.00526999      -0.00053340       0.00460553      -0.00419768
O        6.39606013       1.09621233       9.89835853      -0.26298797       0.09044468       0.00919076       0.03201511      -0.19936006       0.00449106      -0.01385994      -0.02593191       0.03255323      -0.07827401       0.00567219       0.03054204       0.03924700
O        8.33453491       0.65592715       8.05491334      -0.26517945      -0.05737433       0.06444385       0.04400679      -0.20325760      -0.02040979      -0.01519677       0.00481899      -0.04918061       0.07556373       0.00071556       0.06621015       0.01527963
O        7.80211018       2.46793012       6.13682257      -0.26643121      -0.02856425      -0.07470690       0.04169838      -0.20923555       0.00950113      -0.02350992       0.02121828       0.01118572       0.01400625      -0.01086205      -0.08287872      -0.05049048
O        5.26756310       1.58326712       6.44276141      -0.26596679      -0.01236362       0.09213352      -0.02647624      -0.21008253      -0.02434950       0.00699051       0.00928255      -0.02505791      -0.00564894       0.01139442       0.08485440      -0.02755226
O        4.15897029       3.17772961       8.29727634      -0.26297638       0.06892248      -0.04553077      -0.03736666      -0.21012810       0.01697527       0.02590561      -0.03802831      -0.01954460      -0.05349755       0.02544082      -0.03477289      -0.01497684
O        5.84141071       3.65377339      10.33297993      -0.26055264       0.02000578      -0.07569839      -0.05672349      -0.21459710       0.03601104       0.02423199      -0.01979187       0.00701075       0.01859890      -0.04014424      -0.02087694       0.03459416
Si       7.42992552      -0.03927592      14.67983474       0.53693836      -0.01986555      -0.00982347       0.00742747       0.41625709      -0.00150530       0.00039837      -0.00348118       0.00063184      -0.00022552      -0.00463322       0.00321126       0.00714092
Si       3.81494009       2.01080347      12.88273453       0.53960531       0.00256891      -0.00551247      -0.00251790       0.41863360      -0.00015717      -0.00528727      -0.00090488      -0.00632260       0.00018041      -0.00342473      -0.00951436      -0.00844969
Si       6.33654209       2.26246378      11.05694667       0.52615804      -0.01299554      -0.00535454       0.01683622       0.41316172      -0.00246590       0.00945007      -0.00141987      -0.00080209       0.00797921      -0.01074850       0.00230315      -0.00809133
O        6.47003099       1.10000787      15.34070071      -0.26501575       0.08797544       0.01158631       0.04159530      -0.20510938       0.00660626      -0.01391626      -0.02214511       0.03699847      -0.09031826       0.00497071       0.02553845       0.03175424
O        8.37347640       0.59010571      13.50008243      -0.26762951      -0.04748304       0.07038409       0.04523502      -0.20824366      -0.02044541      -0.01550960       0.00195612      -0.04285558       0.06450724      -0.00353461       0.06779860       0.01972059
O        7.81306018       2.51314089      11.70908980      -0.26580020      -0.03424705      -0.07487154       0.04178099      -0.20386961       0.01599724      -0.01686805       0.01630962       0.00999738       0.02360491       0.00849127      -0.09646949      -0.04765974
O        5.29054281       1.78781161      12.21757237      -0.26321510      -0.02929258       0.07421766      -0.05082423      -0.20041930      -0.01113218       0.01406416       0.01493241      -0.01155989       0.01919719      -0.00007026       0.09781022      -0.05132387
O        3.90889236       3.13937450      14.06770204      -0.26517124       0.08155944      -0.01056537      -0.04527204      -0.20497062      -0.00934627       0.01535974      -0.02207720      -0.04008189      -0.09351383       0.00122901      -0.01791154       0.02620303
O        5.93266187       3.66534246      15.78486847      -0.26450011      -0.06604199      -0.06649715      -0.03889287      -0.20461596       0.02097813       0.01481849       0.00602834       0.04458071       0.06626823       0.00792964      -0.06441852       0.01027703