242
Lattice="15.10927737 0.0076168 0.0079853 -7.51152983 13.05521592 -0.0268538 0.02609608 -0.02059175 16.56122354" Properties=species:S:1:pos:R:3:aims_hirshfeld:R:1:aims_forces:R:3:atomic_multipoles:R:9 aims_energy=-970167.713794819 pbc="T T T"
Si       2.40591528       0.01871434       3.67368857       0.53966223       0.00084768      -0.00042830      -0.00006232       0.41677364      -0.00216807      -0.00055980      -0.00266096      -0.00383841       0.00359850      -0.00931850      -0.00274509       0.01212522
Si      -1.18351041       2.05295303       1.84303562       0.53830095      -0.00027895      -0.00005104      -0.00049717       0.41525803      -0.00235467      -0.00097142      -0.00049142      -0.00980763      -0.00036342      -0.00505615      -0.00564872      -0.00543936
Si       1.32768425       2.29478221       0.00483036       0.53898887       0.00004921       0.00032824      -0.00055631       0.41614501       0.00206783       0.00200168       0.00078266       0.00472563      -0.00118693      -0.00777935       0.00410405      -0.00652478
O        1.48098908       1.16465113       4.37708007      -0.26525371      -0.00067299       0.00032789      -0.00020767      -0.20252788       0.00541444      -0.01631079      -0.01843747       0.04390744      -0.09860646       0.00365213       0.03427163       0.03348571
O        3.34871412       0.68627448       2.52069605      -0.26592522       0.00036260      -0.00033093       0.00005111      -0.20494182      -0.02168795      -0.01559601       0.00410006      -0.04707143       0.07162348       0.00213093       0.06860072       0.01772767
O        2.77943681       2.57284441       0.69703962      -0.26610078       0.00027760      -0.00007513       0.00000994      -0.20503421       0.01316577      -0.01422074       0.01576104       0.00923082       0.02135349       0.00614905      -0.09773458      -0.04696137
O        0.26584359       1.80095735       1.14038631      -0.26576642       0.00031895      -0.00006071       0.00032176      -0.20410538      -0.01402599       0.01482438       0.01513270      -0.01012346       0.02027022       0.00395200       0.09934363      -0.04973497
O       -1.05670666       3.20596048       2.99043567      -0.26593820      -0.00037486       0.00041982      -0.00021361      -0.20378785      -0.00755642       0.01498892      -0.02014798      -0.03971630      -0.09942172       0.00510497      -0.02954374       0.03309155
O        0.81812812       3.70707657       4.83730110      -0.26593195      -0.00000986       0.00021305      -0.00051093      -0.20417205       0.02171022       0.01497975       0.00163025       0.04415304       0.07114013       0.00298263      -0.07148551       0.01930742
Si       2.42271031       0.03190814       9.21707593       0.53951217      -0.00108719      -0.00017617       0.00039782       0.41572555      -0.00408033      -0.00128249       0.00290159      -0.00151414       0.00535160      -0.00239559      -0.00816882       0.00997667
Si      -1.19418136       2.05040234       7.34363416       0.53976064      -0.00017091       0.00029132      -0.00015382       0.41680272      -0.00005174       0.00047925      -0.00199253      -0.01069900       0.00016506      -0.00753671      -0.00758882      -0.00675236
Si       1.31787429       2.31373508       5.52142091       0.54112554      -0.00040267       0.00041855       0.00052394       0.41805831      -0.00073094      -0.00221661       0.00273033       0.00687616      -0.00339176      -0.00992095       0.00680293       0.00300475
O        1.44005933       1.11422793       9.93510065      -0.26666716       0.00027171       0.00038100       0.00031717      -0.20575636       0.00475609      -0.01451015      -0.02207405       0.03625559      -0.09689285       0.00687548       0.03470170       0.02910546
O        3.39772241       0.79863795       8.14804453      -0.26417215       0.00067237       0.00033009      -0.00061347      -0.20224349      -0.02268993      -0.01111201       0.00312222      -0.04663460       0.08567119       0.01352807       0.06638494       0.01681811
O        2.74724926       2.61957693       6.26400455      -0.26379122      -0.00014632      -0.00026345      -0.00064144      -0.20141660       0.00961484      -0.01860830       0.01181277       0.00614422       0.01772214       0.00399038      -0.10331249      -0.04840460
O        0.25642457       1.79128013       6.64526052      -0.26660907      -0.00024410      -0.00019245       0.00000978      -0.20536461      -0.01477400       0.01378569       0.01435479      -0.01080533       0.02269774       0.00774049       0.09880426      -0.04683353
O       -1.05803764       3.19530843       8.50455734      -0.26516785       0.00011334      -0.00029490      -0.00039888      -0.20274630      -0.00820019       0.01458515      -0.02058804      -0.03971678      -0.09923059       0.00566351      -0.03042654       0.03090628
O        0.85793043       3.67565812      10.33874192      -0.27159103       0.00129524       0.00002634       0.00044132      -0.21191496       0.01702945       0.01384357      -0.00105186       0.04888524       0.06827921       0.00076272      -0.06893552       0.02071764
Si       2.41651558      -0.02108937      14.74720754       0.53958714       0.00095282      -0.00001918       0.00022499       0.41594569      -0.00142611      -0.00022599       0.00188606       0.00253397       0.00618797      -0.00753511      -0.00439132       0.01260126
Si      -1.18802222       2.05747766      12.89821087       0.54004134      -0.00027713       0.00059203       0.00086799       0.41695240      -0.00160391      -0.00054917      -0.00312049      -0.01334402       0.00011377      -0.00788303      -0.00783265      -0.00336658
Si       1.32959655       2.28656514      11.06223828       0.53274012      -0.00072649      -0.00118697      -0.00025610       0.41390711       0.00123224       0.00340921      -0.00270535       0.00511490      -0.00069432      -0.00884347       0.01035167      -0.00357991
O        1.46528332       1.11504161      15.42162603      -0.26644368      -0.00076323       0.00020130       0.00059627      -0.20465468       0.00633396      -0.01397127      -0.02041387       0.03960927      -0.09696735       0.00448065       0.03034608       0.03188556
O        3.33873925       0.65221879      13.57381553      -0.26446932      -0.00025803      -0.00001189       0.00020427      -0.20127553      -0.02350785      -0.01415773       0.00211096      -0.04627867       0.07464864       0.00375038       0.07320648       0.01876827
O        2.79204880       2.55930095      11.74736956      -0.27192186       0.00031242       0.00010433       0.00006186      -0.21298577       0.00655764      -0.01318862       0.01268377       0.01052387       0.01779722       0.00694175      -0.09492860      -0.04630520
O        0.27045908       1.81681713      12.20664102      -0.26509147       0.00091931       0.00014230      -0.00091833      -0.20375058      -0.01454099       0.01613504       0.01394342      -0.01035390       0.01786358       0.00480816       0.09889515      -0.04982947
O       -1.07368241       3.23201238      14.02810980      -0.26555085      -0.00027971      -0.00056158      -0.00101570      -0.20457583      -0.00773187       0.01602194      -0.02150201      -0.03758167      -0.09574500       0.00830396      -0.02825283       0.02896363
O        0.85587673       3.66053409      15.86070033      -0.26569035      -0.00003622      -0.00042678      -0.00000797      -0.20380756       0.01947546       0.01668774       0.00271255       0.04710899       0.07440996       0.00234445      -0.06916157       0.01827457
Si      -0.11891168       4.35452630       3.66055916       0.53869181       0.00070222      -0.00043010       0.00091204       0.41610910      -0.00008207      -0.00098549       0.00406252      -0.00302149       0.00857318      -0.00380833       0.00122983       0.00787138
Si      -3.71404696       6.43171558       1.79945340       0.54002986      -0.00038392       0.00062196       0.00017460       0.41740155      -0.00109109      -0.00157143      -0.00054056      -0.00843886      -0.00163946      -0.00898163      -0.00420943      -0.00576839
Si      -1.18772983       6.64795186      -0.02008673       0.53932648      -0.00000482      -0.00007212      -0.00044859       0.41606972      -0.00120049       0.00281803      -0.00094352       0.00786669      -0.00019569      -0.00812821       0.00679400      -0.00918490
O       -1.11265876       5.47469960       4.30734086      -0.26546377      -0.00074916       0.00086119       0.00146279      -0.20397624       0.00818384      -0.01813269      -0.02175305       0.03863522      -0.09615885       0.00560726       0.02525796       0.02693647
O        0.84474402       5.03020901       2.52620189      -0.26594925       0.00014051       0.00058346      -0.00046390      -0.20439869      -0.02082346      -0.01467206       0.00335306      -0.04515462       0.07385174       0.00402388       0.06918071       0.01711511
O        0.25228178       6.90859296       0.69845891      -0.26671209       0.00017770       0.00041594      -0.00004138      -0.20518985       0.01301412      -0.01403430       0.01455992       0.01053562       0.01844641       0.00912584      -0.10296835      -0.04686329
O       -2.27392323       6.13987126       1.08840131      -0.26570982      -0.00015283      -0.00009968       0.00023434      -0.20488860      -0.01406712       0.01354756       0.01510605      -0.01077830       0.01945989       0.00560539       0.09744671      -0.04846703
O       -3.57640043       7.60398181       2.92685483      -0.26642062      -0.00013916       0.00037046      -0.00016762      -0.20432834      -0.00671779       0.01528318      -0.01894531      -0.03688542      -0.09864640       0.01046853      -0.03655604       0.03322649
O       -1.69768182       8.02859869       4.79607831      -0.26587253      -0.00081294      -0.00003884      -0.00016958      -0.20369750       0.02142365       0.01566300       0.00308327       0.04691530       0.07451312       0.00453483      -0.06803085       0.02295470
Si      -0.11549240       4.32928864       9.19312543       0.53559175      -0.00053312       0.00028507      -0.00027214       0.41486153      -0.00352200      -0.00160823      -0.00086787      -0.00371896       0.00037903      -0.00327931      -0.00312370       0.00812280
Si      -3.69911140       6.40462164       7.35752627       0.53954776      -0.00011853      -0.00020961       0.00007790       0.41648092       0.00134281      -0.00058086       0.00003886      -0.00740934      -0.00390096      -0.00424363      -0.00557025      -0.00643782
Si      -1.22189552       6.62069793       5.46224290       0.53946423      -0.00065789      -0.00121778      -0.00097734       0.41520753       0.00135885       0.00055608      -0.00260430       0.01308497      -0.00032954      -0.00767647       0.00927125      -0.00156428
O       -1.08773735       5.44158960       9.88211411      -0.26602723      -0.00012710       0.00008790       0.00055764      -0.20492405       0.00653227      -0.01592107      -0.02329223       0.03594401      -0.09656492       0.00820765       0.02684033       0.02836160
O        0.83829617       5.02810390       8.06062445      -0.26897321      -0.00001165       0.00014676      -0.00060984      -0.20562872      -0.01653551      -0.01046893       0.00323439      -0.03631257       0.08151798       0.00349145       0.08212499       0.02444982
O        0.24193685       6.84755740       6.14775705      -0.26383550       0.00204718       0.00032744       0.00107637      -0.20088897       0.01372136      -0.01754067       0.01327689       0.00833989       0.01924529       0.00302827      -0.10225295      -0.05180941
O       -2.27732627       6.13673805       6.60861415      -0.26591516       0.00061414       0.00015071       0.00068464      -0.20344075      -0.01323941       0.01333032       0.01574908      -0.01046632       0.01993216       0.00308390       0.10520935      -0.04684201
O       -3.53899132       7.55829866       8.50204259      -0.26611944      -0.00042912      -0.00007622       0.00030145      -0.20463959      -0.00621695       0.01413824      -0.01817839      -0.04011652      -0.09690483       0.00605929      -0.03441074       0.03188972
O       -1.62016697       8.01442843      10.32014104      -0.26616410       0.00045431      -0.00023577      -0.00032487      -0.20560127       0.02179392       0.01405182       0.00319485       0.04621619       0.07189614       0.00524901      -0.06585633       0.01675046
Si      -0.08455326       4.33346546      14.70982903       0.54105077       0.00068875      -0.00071771      -0.00068457       0.41787880       0.00009893      -0.00118047       0.00292072       0.00284122       0.00256425      -0.00675588      -0.00509638       0.00723041
Si      -3.66186218       6.40910652      12.88152604       0.54094951      -0.00030360       0.00062459      -0.00032811       0.41837827      -0.00130550      -0.00036435      -0.00119534      -0.01115954      -0.00234030      -0.00880131      -0.00395070      -0.00209257
Si      -1.16165085       6.61407950      11.01712579       0.53995000       0.00024255      -0.00025576       0.00029614       0.41764317       0.00301374       0.00247608      -0.00128805       0.01200786       0.00224233      -0.00821916       0.01003443      -0.00108882
O       -1.01197075       5.49515342      15.37152170      -0.26615658       0.00005806       0.00069809       0.00060830      -0.20393498       0.00823724      -0.01389672      -0.01929797       0.04451836      -0.09847277       0.00208034       0.02708718       0.03332806
O        0.88733242       4.96939561      13.54563828      -0.26408195       0.00053641      -0.00041068       0.00010187      -0.20212151      -0.02370176      -0.00981222      -0.00046674      -0.04473683       0.07285713       0.00108047       0.07129310       0.01532909
O        0.32249213       6.83371347      11.67715483      -0.26604565       0.00001257       0.00005980       0.00092556      -0.20562747       0.01332761      -0.01499166       0.00791535       0.00970338       0.02456129       0.01116342      -0.09663573      -0.04651770
O       -2.20381072       6.16306554      12.18821753      -0.26537519       0.00028256      -0.00019451      -0.00119086      -0.20384899      -0.01349362       0.01559757       0.01475830      -0.00813836       0.02122530       0.00012003       0.09765920      -0.05116754
O       -3.56324645       7.57674846      14.01878818      -0.26609536       0.00013514      -0.00022953      -0.00050225      -0.20507748      -0.00629133       0.01588997      -0.01980602      -0.03831153      -0.09556092       0.00541029      -0.02766358       0.03021897
O       -1.64455876       8.02393973      15.85070479      -0.26649706       0.00031767      -0.00031497      -0.00017663      -0.20479186       0.02084887       0.01586417       0.00384097       0.04521923       0.07259083       0.00446251      -0.07086276       0.02053505
Si      -2.61738721       8.71604177       3.63183877       0.53856375       0.00062704      -0.00088887      -0.00016602       0.41536371      -0.00081773      -0.00070408       0.00130880      -0.00289861       0.00649846      -0.00675573       0.00067500       0.00906450
Si      -6.18531987      10.77192242       1.83869004       0.54091108       0.00003777       0.00032354       0.00041653       0.41836863       0.00091234       0.00150845      -0.00133993      -0.01131513      -0.00344174      -0.00899857      -0.00560992      -0.00479663
Si      -3.67210462      11.00405961      -0.00677299       0.53926952       0.00011747       0.00017244       0.00008491       0.41691829      -0.00090115       0.00105113      -0.00044935       0.00576025      -0.00268204      -0.00860850       0.00489111      -0.00596726
O       -3.57864605       9.84544154       4.31023993      -0.26545783      -0.00123218       0.00106060       0.00048343      -0.20365314       0.00693451      -0.01601348      -0.02090743       0.03953175      -0.09717408       0.00237286       0.02491677       0.02934847
O       -1.63946870       9.38834159       2.51205689      -0.26602745       0.00069450       0.00024571       0.00011795      -0.20483059      -0.02086142      -0.01437009       0.00405038      -0.04629873       0.07343012       0.00567352       0.06910047       0.01443648
O       -2.21822894      11.26675711       0.68307355      -0.26616035      -0.00025841       0.00003911       0.00024503      -0.20497023       0.01314154      -0.01464598       0.01583737       0.01029559       0.02167630       0.00681467      -0.09844905      -0.04846370
O       -4.73509249      10.51980138       1.13544140      -0.26594669       0.00012082      -0.00051054      -0.00021639      -0.20464127      -0.01372534       0.01385565       0.01546656      -0.00870314       0.02292497       0.00211743       0.09787401      -0.04978808
O       -6.07997469      11.95674572       2.96341731      -0.26577718      -0.00005025      -0.00066292      -0.00033899      -0.20509226      -0.00635085       0.01407195      -0.01988400      -0.03713775      -0.09299434       0.00866691      -0.02953310       0.03129591
O       -4.15271598      12.39970526       4.79174961      -0.26751762      -0.00056040       0.00052914       0.00018198      -0.20524434       0.02077591       0.01668992       0.00301881       0.04665572       0.07655999       0.00924239      -0.06769955       0.01739011
Si      -2.58885230       8.69203478       9.18698144       0.53981268       0.00008275      -0.00003840       0.00004658       0.41697217      -0.00055249      -0.00114668       0.00142343      -0.00126562       0.00608318      -0.00521252       0.00100036       0.01054064
Si      -6.15922141      10.80522215       7.32376351       0.54025143      -0.00013960      -0.00090244      -0.00023009       0.41654800       0.00091133      -0.00236017      -0.00407483      -0.00447072      -0.00106399      -0.00737107      -0.00751983      -0.00580833
Si      -3.66668777      10.99519099       5.46372236       0.53827294      -0.00047183      -0.00074323       0.00040437       0.41451158       0.00034770      -0.00080105       0.00144062       0.01022613      -0.00340416      -0.00836007       0.00382277      -0.00376748
O       -3.55548598       9.79823017       9.89366136      -0.26668554      -0.00003748       0.00049962       0.00040166      -0.20595624       0.00653805      -0.01374384      -0.01926592       0.03643286      -0.09709349       0.00664691       0.03081688       0.03007379
O       -1.65450455       9.39365268       8.04508899      -0.26650323      -0.00021693      -0.00041590      -0.00017893      -0.20404740      -0.01779563      -0.01206558       0.00434014      -0.04321104       0.08053076       0.00500195       0.07359257       0.01937747
O       -2.20752378      11.23350061       6.15402648      -0.26562473       0.00147945      -0.00073201      -0.00002472      -0.20312533       0.01261459      -0.01604593       0.01500688       0.00448415       0.02537064       0.00187804      -0.09999008      -0.05189579
O       -4.72341009      10.51759653       6.61253977      -0.26656242       0.00074064       0.00019163       0.00016568      -0.20412436      -0.01356720       0.01484875       0.01732393      -0.00629662       0.02362482       0.00356793       0.10318243      -0.04961363
O       -6.03042388      12.01747647       8.40930551      -0.26561395      -0.00011320       0.00077114       0.00057143      -0.20356467      -0.00628476       0.01131606      -0.01814112      -0.03516793      -0.10103060       0.01017927      -0.04036113       0.03601223
O       -4.14914923      12.36026618      10.30730420      -0.26626202      -0.00025515      -0.00022350       0.00050093      -0.20532361       0.01573774       0.01316691       0.00321851       0.04859752       0.07934652       0.00646182      -0.06489895       0.01919798
Si      -2.59660906       8.69860654      14.70746893       0.53835837       0.00039260      -0.00030554      -0.00013118       0.41604917       0.00009873      -0.00030171      -0.00031046       0.00158392       0.00394915      -0.00869018       0.00009099       0.00923177
Si      -6.18402492      10.77487665      12.87422459       0.53921295      -0.00064741       0.00130059       0.00017991       0.41636476      -0.00104910       0.00048630       0.00088733      -0.00739555      -0.00336331      -0.00682134      -0.00353088      -0.00516440
Si      -3.66823107      10.97333061      11.02158489       0.53934670       0.00037100      -0.00039891      -0.00045208       0.41665325       0.00102426       0.00071248      -0.00067073       0.00810877      -0.00334900      -0.00619008       0.00563044      -0.00560499
O       -3.54402484       9.83023185      15.39965705      -0.26637835      -0.00054722       0.00010924       0.00038636      -0.20488291       0.00717497      -0.01491772      -0.01972106       0.04046672      -0.09609858       0.00475290       0.02906700       0.03267534
O       -1.64736332       9.36196117      13.55237664      -0.26716967      -0.00001149       0.00019505       0.00035524      -0.20584219      -0.02058080      -0.01414600       0.00307477      -0.04942743       0.07302699       0.00258961       0.06862565       0.01826030
O       -2.21689984      11.24094577      11.71698437      -0.26711196       0.00038800       0.00019126       0.00049928      -0.20638341       0.01226435      -0.01413924       0.01522252       0.00991264       0.02088427       0.00711419      -0.09871030      -0.04701238
O       -4.74371609      10.50862575      12.15891243      -0.26592800       0.00039075      -0.00024939      -0.00009875      -0.20423173      -0.01351362       0.01390188       0.01489230      -0.00824143       0.01962088       0.00574055       0.10220370      -0.04909225
O       -6.04938780      11.89227943      14.05547317      -0.26517048      -0.00052483      -0.00069459      -0.00128066      -0.20343956      -0.00760324       0.01758598      -0.02011743      -0.04131028      -0.09505968       0.00170853      -0.02947446       0.02967555
O       -4.12958228      12.38152347      15.86254812      -0.26552673       0.00025465       0.00009721      -0.00036653      -0.20407958       0.02122078       0.01591221       0.00410424       0.04535991       0.07030173       0.00332688      -0.07040085       0.01758234
Si       7.42052451       0.00644232       3.72102013       0.54147061      -0.00016666       0.00017862       0.00072188       0.41885822       0.00287404      -0.00076239      -0.00300265      -0.00221727       0.00231485      -0.01233289       0.00184304       0.00891539
Si       3.84618734       2.07743937       1.83270452       0.53899906      -0.00057723       0.00071497      -0.00028114       0.41644347       0.00216180      -0.00076017      -0.00160685      -0.00807826      -0.00255793      -0.00619769      -0.00730023      -0.00552440
Si       6.37604436       2.26343701       0.01013722       0.53948854      -0.00020295      -0.00004507      -0.00009209       0.41592763      -0.00195035       0.00031965       0.00027039       0.00599601      -0.00612638      -0.00770386       0.00572101      -0.00809832
O        6.44003444       1.09073529       4.46230403      -0.26490799       0.00034226      -0.00011754      -0.00070688      -0.20373040       0.00462797      -0.01447097      -0.01881645       0.03486617      -0.09492452       0.01197884       0.02903272       0.03266714
O        8.36840126       0.71886410       2.59872913      -0.26632335       0.00009624       0.00010837      -0.00095772      -0.20407742      -0.01826010      -0.01439496       0.00428581      -0.05234139       0.08143390       0.00691324       0.06567556       0.01678905
O        7.81829029       2.54126112       0.71195166      -0.26608354       0.00031377       0.00033992       0.00047763      -0.20455673       0.01291825      -0.01404247       0.01630485       0.00693400       0.02144988       0.00314239      -0.10025773      -0.05072303
O        5.29469225       1.79775838       1.13906503      -0.26587017       0.00011051      -0.00042415      -0.00011862      -0.20377136      -0.01325013       0.01622050       0.01607421      -0.00801821       0.02016962       0.00861228       0.10197476      -0.04897988
O        3.98011248       3.23348813       2.98183747      -0.26646638      -0.00021216      -0.00034836       0.00024828      -0.20489523      -0.00759355       0.01475798      -0.01926664      -0.04010247      -0.09765695       0.00715461      -0.03117603       0.03047920
O        5.90699175       3.68359510       4.80299053      -0.26831298      -0.00067925      -0.00004733       0.00086866      -0.20714660       0.01964470       0.01166914       0.00446619       0.04203605       0.08174189       0.00861429      -0.06791459       0.01523497
Si       7.47210086      -0.04849789       9.17606573       0.54327520      -0.00100609       0.00016886      -0.00027808       0.41938613       0.00309554       0.00619610       0.00080801      -0.00129383       0.01043564       0.00037624      -0.00171973       0.01240447
Si       3.81913561       2.17365852       7.39877743       0.54739648      -0.00090941       0.00148865       0.00157591       0.42182574       0.00872735       0.00396420      -0.00215131      -0.00496599       0.01662437      -0.00591882      -0.00713394      -0.01263770
Si       6.36610997       2.30954046       5.54741323       0.54055077      -0.00076842       0.00008532       0.00003316       0.41725822      -0.00806734      -0.00212631      -0.00247683       0.01862892      -0.01310424      -0.01152704       0.00181155      -0.00125032
O        6.56772073       1.08207482       9.94567579      -0.26277365      -0.00049059      -0.00172777       0.00196113      -0.20020465       0.00051819      -0.01144621      -0.01293029       0.03430581      -0.10399648       0.00061526       0.03963034       0.03377965
O        8.41450122       0.67059694       8.05624266      -0.26554918      -0.00059554       0.00076765       0.00018088      -0.20470865      -0.01853765      -0.01568573       0.00424874      -0.04656567       0.07440480       0.00679263       0.06818713       0.02236742
O        7.81679087       2.56318078       6.24509728      -0.26751905       0.00086270       0.00019084      -0.00045690      -0.20635032       0.01234977      -0.01661694       0.01715896       0.00773590       0.02459262       0.00745906      -0.09926619      -0.05009728
O        5.29182178       1.96342536       6.74155272      -0.26533095       0.00174001      -0.00009570      -0.00047907      -0.20115734      -0.01221694       0.01089215       0.01730154      -0.00266294       0.02766430       0.00337451       0.10362945      -0.06086916
O        3.89997941       3.38688944       8.55288772      -0.25370428      -0.00212054      -0.00251604      -0.00215864      -0.18872049      -0.01430395       0.00327423      -0.02669941      -0.04055192      -0.07769141       0.00114143      -0.03601042       0.01488059
O        5.88069658       3.63286060      10.39527338      -0.24350958       0.00149732      -0.00144469       0.00053669      -0.17507682      -0.00021394       0.01740930       0.01522090       0.04828884       0.08086387       0.01219614      -0.07377609       0.02830289
Si       7.46975472      -0.04168689      14.72331223       0.53878060       0.00040696      -0.00017959       0.00028832       0.41568725      -0.00016262       0.00158789       0.00115620       0.00289732       0.00643271      -0.00634181      -0.00260513       0.00909684
Si       3.84317099       2.03794540      12.89042466       0.53692364      -0.00009210      -0.00010948      -0.00019890       0.41593648      -0.00219002       0.00168696      -0.00344796      -0.01139329       0.00224469      -0.00450959      -0.00788714       0.00412715
Si       6.39683247       2.21380664      11.09905552       0.54613714       0.00019658       0.00138540      -0.00141699       0.42006668       0.00028441      -0.00416535      -0.00184014      -0.00265080      -0.02352988      -0.00447468       0.01399876      -0.02036061
O        6.52227790       1.07871752      15.43308509      -0.26647120       0.00038056       0.00087991      -0.00060035      -0.20456535       0.00666433      -0.01349991      -0.01825792       0.03838874      -0.09891442       0.00576603       0.03309193       0.03287657
O        8.41376578       0.64927248      13.58044840      -0.26617207       0.00038654      -0.00041194      -0.00047929      -0.20304129      -0.02088138      -0.01574794       0.00251185      -0.04448266       0.07721917       0.01202927       0.07243632       0.01953217
O        7.81373994       2.55686758      11.80710900      -0.26514423      -0.00059330       0.00060637      -0.00035528      -0.20402495       0.01227288      -0.00961707       0.02013318       0.00741203       0.01849295       0.00906376      -0.10230279      -0.04632989
O        5.28612836       1.74038478      12.18189243      -0.26388397      -0.00062079       0.00083925       0.00103537      -0.20212334      -0.01776429       0.01769410       0.01300612      -0.00802872       0.02021434       0.01051277       0.10169380      -0.04740354
O        4.00417076       3.20577398      14.01865739      -0.26639950      -0.00037011      -0.00043258       0.00055345      -0.20507586      -0.00995345       0.01877539      -0.01836895      -0.03984815      -0.09698417       0.00458580      -0.03403755       0.03069188
O        5.91966314       3.63220843      15.86174375      -0.26507898      -0.00000375      -0.00009958       0.00066449      -0.20295877       0.01897976       0.01668705       0.00489925       0.04623631       0.07694152       0.00409491      -0.06920929       0.01760229