242
Lattice="14.94552095 -0.03888539 0.00278394 -7.48421575 12.88794856 -0.04001913 0.03340573 -0.0309458 16.35521609" Properties=species:S:1:pos:R:3:dft_forces:R:3:dft_hirshfeld:R:1:dft_atomic_multipoles:R:9 dft_energy=-970282.01937239 dft_calculation_time=644.676 dft_number_of_scf_cylces=18.0 dft_VBM=-7.51631589 dft_CBM=-4.07113077 dft_fermi_level_up=-2.83234224 dft_fermi_level_down=-4.11202365 pbc="T T T" tag="Epucker" total_charge=1
Si       2.39821699      -0.01657655       3.62847968       0.00002474      -0.00137166       0.00030208       0.56274043       0.44705159       0.00169357      -0.00065097       0.00291214       0.00206902       0.00721312      -0.00773841       0.00109930       0.00624106
Si      -1.17535787       2.02950689       1.80907115      -0.00061915       0.00001933      -0.00135814       0.56543994       0.45002483       0.00575319       0.00164809      -0.00303663      -0.01367087      -0.00799387      -0.01165481      -0.00716310      -0.00375120
Si       1.31861659       2.24090504       0.00572136      -0.00004143       0.00091070      -0.00109647       0.56265832       0.44789777      -0.00217254       0.00055713      -0.00002948       0.00627716      -0.00631503      -0.00921792       0.00696110      -0.00916314
O        1.44088552       1.10855707       4.28505499      -0.00035455      -0.00033568      -0.00075663      -0.27868742      -0.22126011       0.00810923      -0.01381801      -0.01794001       0.03028002      -0.08394339       0.00416698       0.02554667       0.03023569
O        3.31021989       0.61812172       2.44494317       0.00050048       0.00007244      -0.00113844      -0.27814427      -0.21946956      -0.02113495      -0.01533529       0.00076516      -0.04009520       0.06098557      -0.00168251       0.06039642       0.01726598
O        2.77348761       2.51363587       0.65601792       0.00112740      -0.00076089      -0.00007800      -0.27902412      -0.22157413       0.01175609      -0.01277660       0.01729870       0.01116567       0.02078242       0.00061147      -0.08281706      -0.04200279
O        0.28641934       1.76974311       1.16168260       0.00056125      -0.00134567       0.00112784      -0.27854391      -0.22107263      -0.01142437       0.01667778       0.01709732      -0.00816822       0.02082918       0.00257171       0.08334410      -0.04221843
O       -1.09468287       3.19873112       2.93469735       0.00032255       0.00054153       0.00037857      -0.27817018      -0.22092347      -0.00924760       0.01597636      -0.01718888      -0.03153836      -0.08035651       0.00719824      -0.02352838       0.02636295
O        0.83654568       3.62810776       4.74060659       0.00066434      -0.00078686       0.00018927      -0.27931858      -0.22103779       0.01834166       0.01474761       0.00179364       0.04457541       0.06757753       0.00521655      -0.05859438       0.01220014
Si       2.37498414      -0.02377878       9.07142119       0.00097366      -0.00089071      -0.00073837       0.56356844       0.44780761       0.00314628      -0.00016882       0.00178553       0.00000059       0.00526014      -0.01479658       0.00371233       0.01128739
Si      -1.15554862       2.03507517       7.25415179      -0.00070360       0.00068913       0.00136756       0.56415447       0.44818497      -0.00023955      -0.00198521       0.00061458      -0.00540424      -0.00237531      -0.00934790      -0.00441834      -0.00922935
Si       1.33519535       2.25095631       5.42777032       0.00029832       0.00184610       0.00100266       0.56314945       0.44733539       0.00030723       0.00209527      -0.00071734       0.01033555      -0.00245786      -0.00984968       0.00473061      -0.00746786
O        1.41977401       1.11919700       9.71198616      -0.00005725       0.00019962       0.00015873      -0.27828218      -0.21966145       0.00959131      -0.01736105      -0.01614670       0.03588909      -0.08405568       0.00080344       0.02377198       0.02353360
O        3.30338630       0.59034440       7.89407810       0.00107293       0.00097735      -0.00140270      -0.27756071      -0.21867391      -0.02081950      -0.01743570       0.00119670      -0.04094131       0.05820692       0.00000519       0.06241782       0.01596544
O        2.78088765       2.50444086       6.10877870       0.00019927      -0.00084621      -0.00009343      -0.27873867      -0.22093203       0.01236368      -0.01360180       0.01664075       0.01251405       0.02026019       0.00198445      -0.08367172      -0.04112319
O        0.28514722       1.77458404       6.56894335      -0.00033585      -0.00136333      -0.00027716      -0.27841421      -0.22094998      -0.01050769       0.01250227       0.01619492      -0.01091100       0.01687730       0.00231513       0.08623808      -0.04330226
O       -1.04719354       3.17038058       8.40673641       0.00008794       0.00010245      -0.00144146      -0.27861050      -0.21969936      -0.00851622       0.01353839      -0.01736228      -0.03218698      -0.08807577       0.00519812      -0.02915504       0.02839078
O        0.78641887       3.62470864      10.28103453       0.00093219      -0.00000180       0.00062725      -0.28259347      -0.22648421       0.01765957       0.01264930       0.00149227       0.04566534       0.05953958      -0.00458475      -0.05994692       0.02033773
Si       2.39038382      -0.06891817      14.55693523      -0.00002726       0.00086278       0.00016482       0.56326834       0.44779168      -0.00031203       0.00112887       0.00159226       0.00273343       0.00683455      -0.01018404      -0.00063766       0.00781054
Si      -1.21043687       1.95133151      12.70024684       0.00049501      -0.00165167       0.00012122       0.56733055       0.45170957      -0.00477714       0.00502719      -0.00073776      -0.00837079      -0.00289027      -0.00486629      -0.00484971      -0.00780198
Si       1.28670690       2.21276856      10.90165299       0.00043048      -0.00010982      -0.00084204       0.56162938       0.44834366      -0.00311590      -0.00032315      -0.00072955       0.00602984      -0.00596178      -0.00814409       0.00604197      -0.00406305
O        1.44219843       1.06689542      15.21381465       0.00103087       0.00054909      -0.00065633      -0.27950130      -0.22199002       0.00834596      -0.01507071      -0.01634517       0.03162366      -0.08383113       0.00822179       0.02607869       0.02948490
O        3.30791856       0.56360111      13.37744833      -0.00016395      -0.00049932       0.00043652      -0.27852192      -0.22043866      -0.02106161      -0.01493564       0.00159198      -0.03833368       0.05991309      -0.00181696       0.06049640       0.01700048
O        2.71599038       2.47118746      11.61478245      -0.00147176       0.00009864      -0.00055310      -0.28138319      -0.22573244       0.00898418      -0.01228844       0.01444732       0.01481530       0.01405806       0.00468498      -0.08850382      -0.04443777
O        0.22395711       1.67264777      12.00587919      -0.00141579       0.00055862       0.00046092      -0.27953864      -0.22298202      -0.01034787       0.01212563       0.01729042      -0.01331920       0.01583023       0.00695389       0.08405263      -0.03899641
O       -1.05348863       3.04771325      13.88903422       0.00018503       0.00017457      -0.00045052      -0.27642582      -0.21674269      -0.00985162       0.01412383      -0.01746957      -0.03414371      -0.08741277      -0.00304231      -0.02709420       0.02625779
O        0.83924417       3.59111157      15.68201305      -0.00078615      -0.00055304       0.00178756      -0.27806828      -0.22029043       0.01756998       0.01722218       0.00211063       0.03940815       0.06327900       0.00346755      -0.06159040       0.01241954
Si      -0.10929711       4.29822869       3.60947307       0.00017022       0.00017290      -0.00096910       0.56534777       0.44968668      -0.00234416      -0.00115373      -0.00319081      -0.00119614       0.00008062      -0.01489765      -0.00477545       0.01304762
Si      -3.61182653       6.28691911       1.86093184      -0.00033252      -0.00197222      -0.00059394       0.56262994       0.44572099       0.00103764       0.00233336       0.00147429      -0.01266082      -0.00466638      -0.00781374      -0.00509549      -0.00321804
Si      -1.18241420       6.53084230      -0.01294551      -0.00098731       0.00021240       0.00066211       0.55981504       0.44715405      -0.00077727      -0.00027926      -0.00209444       0.00382565       0.00136763      -0.01211921       0.00730860      -0.00332260
O       -0.99175970       5.45626865       4.31673625       0.00018104       0.00002743      -0.00101446      -0.27857395      -0.22052097       0.00650389      -0.01346196      -0.01611624       0.03580623      -0.08445625       0.00241698       0.03031933       0.03302349
O        0.82053144       4.93174099       2.43613036      -0.00076036      -0.00195187       0.00091705      -0.27790177      -0.22067935      -0.02135097      -0.01329891       0.00273039      -0.03898519       0.05970900       0.00215631       0.05808346       0.01568059
O        0.28700740       6.80780822       0.61484922       0.00015105      -0.00023587       0.00048801      -0.28212443      -0.22659354       0.01077480      -0.01076063       0.01591419       0.01400907       0.01796649      -0.00520962      -0.07810960      -0.04327755
O       -2.17024302       6.03456402       1.16765698       0.00100835      -0.00023600      -0.00071208      -0.27735382      -0.21852615      -0.01279028       0.01682153       0.01563234      -0.00733893       0.02107131       0.00016879       0.08612368      -0.03934394
O       -3.49326048       7.41462594       3.01736465      -0.00043918       0.00127239       0.00023438      -0.27812344      -0.22030603      -0.00827855       0.01676337      -0.01845880      -0.03654205      -0.08274041       0.00324486      -0.02053019       0.02794403
O       -1.58831735       7.97659772       4.78938891       0.00027998      -0.00031737       0.00016222      -0.27883550      -0.22185161       0.02186252       0.01506861      -0.00015053       0.03591646       0.05750816      -0.00253543      -0.05972470       0.01307268
Si      -0.10204736       4.28477110       9.09438957      -0.00055178       0.00051963      -0.00028819       0.56261710       0.44756661      -0.00007809      -0.00027743       0.00107821      -0.00424634       0.00641692      -0.00710680      -0.00096578       0.01024084
Si      -3.66294667       6.32765368       7.23425456      -0.00186499      -0.00064992       0.00020353       0.56380462       0.44837947      -0.00127556      -0.00256212       0.00071128      -0.00799731      -0.00008863      -0.00902159      -0.00459389      -0.00839641
Si      -1.12051741       6.58452142       5.47624068      -0.00111902       0.00127760       0.00212512       0.56604339       0.45159951      -0.00183299       0.00100598       0.00526652       0.00432917      -0.00305100      -0.01240966       0.00204453      -0.00427306
O       -1.05076524       5.43805690       9.72158451      -0.00054200      -0.00030611       0.00114062      -0.27718775      -0.21748486       0.00782684      -0.01781727      -0.01580459       0.03880207      -0.08658624       0.00369442       0.02690866       0.02877032
O        0.88825759       4.92226282       7.97835411       0.00071002       0.00001691       0.00109386      -0.27977853      -0.22036989      -0.02151264      -0.01559558       0.00386626      -0.03630243       0.06036072       0.00560925       0.06988807       0.02098248
O        0.29653281       6.84382720       6.22842011      -0.00012559      -0.00060162      -0.00048999      -0.27818245      -0.22009074       0.00943986      -0.01329643       0.01359024       0.01575558       0.01921673       0.00666862      -0.08779666      -0.04204753
O       -2.20576630       6.08563208       6.57300267       0.00059073       0.00029169      -0.00118414      -0.27917658      -0.22241934      -0.01139536       0.01130062       0.01305398      -0.01500322       0.01643993       0.00642047       0.08426891      -0.04381348
O       -3.57727247       7.45936102       8.39554062       0.00040708       0.00058410      -0.00011834      -0.27908992      -0.21972492      -0.01030084       0.01663257      -0.01797453      -0.03324853      -0.08698262       0.00764798      -0.02411260       0.02580085
O       -1.70145946       7.95293872      10.21128934      -0.00028492       0.00009639       0.00031168      -0.27910486      -0.22078385       0.02106922       0.01214345      -0.00124019       0.03719910       0.06235163      -0.00076528      -0.06513798       0.01689569
Si      -0.13584787       4.20361090      14.54997689       0.00041552      -0.00017405       0.00014581       0.56726585       0.44950884      -0.00588676      -0.00409931      -0.00359615       0.00022521       0.00027912      -0.00122288      -0.01247800       0.01766111
Si      -3.72741543       6.28038848      12.70035526      -0.00013135       0.00092076      -0.00016435       0.56304802       0.44654024       0.00166570      -0.00210270      -0.00004900      -0.00640678      -0.00153328      -0.00639933      -0.00673491      -0.00487751
Si      -1.23797272       6.55525950      10.87379252      -0.00010806       0.00026864      -0.00167593       0.56485289       0.44825605      -0.00152486      -0.00227333      -0.00113751       0.01055015      -0.00069530      -0.01212905       0.01302282       0.00558889
O       -1.07737084       5.34847593      15.19635376      -0.00009526       0.00034472      -0.00037094      -0.27926302      -0.22083946       0.00765976      -0.01389755      -0.02076495       0.02816232      -0.08323463       0.00957934       0.02752290       0.02838951
O        0.78951512       4.89555952      13.39017446       0.00020928      -0.00017959      -0.00019559      -0.27163531      -0.21094681      -0.02927888      -0.01462795       0.00204797      -0.03313044       0.06072459       0.00411371       0.05547163       0.02340755
O        0.17822522       6.82096516      11.63116081      -0.00029368      -0.00082068      -0.00062383      -0.27696460      -0.21880305       0.00968837      -0.01782871       0.00899485       0.01275690       0.01342574      -0.00687183      -0.08707307      -0.04330607
O       -2.30441968       6.03443986      11.97045799       0.00001918       0.00003975       0.00115006      -0.27888299      -0.22047615      -0.01091737       0.01221902       0.01255566      -0.01788668       0.01474920       0.00930827       0.09235377      -0.04052226
O       -3.58092735       7.38376244      13.87829307       0.00083670      -0.00158435      -0.00026829      -0.27792030      -0.21920372      -0.00881385       0.01639673      -0.01779418      -0.03664463      -0.08580324       0.00313168      -0.02553854       0.02386133
O       -1.67418636       7.87443243      15.66612409      -0.00032548       0.00023929      -0.00070866      -0.27968895      -0.22362548       0.02029120       0.01597663      -0.00280621       0.04515972       0.05924003       0.00110579      -0.05810877       0.00890512
Si      -2.53829659       8.57696899       3.61743441       0.00038458      -0.00057574       0.00107963       0.56468494       0.44963120       0.00277796      -0.00017563       0.00351509       0.00293195       0.00533866      -0.01184528       0.00078026       0.00892477
Si      -6.14508588      10.60189119       1.80262177      -0.00049086       0.00018000      -0.00112610       0.56266602       0.44662620      -0.00060655      -0.00186661       0.00114844      -0.01003891      -0.00433211      -0.00681491      -0.00237154      -0.00611835
Si      -3.66656242      10.83425040      -0.02176882       0.00074006       0.00087356      -0.00037499       0.56329032       0.44814612       0.00218371       0.00227806       0.00170017       0.00827050      -0.00015044      -0.00820122       0.00415312      -0.00823700
O       -3.47994415       9.73713056       4.24058084      -0.00034733      -0.00044669      -0.00116158      -0.27855751      -0.22085408       0.00807536      -0.01501330      -0.01736882       0.03569645      -0.08411999       0.00512732       0.02343810       0.02942831
O       -1.61699894       9.16568214       2.41231053       0.00084930       0.00060822      -0.00012412      -0.27844352      -0.22076520      -0.02169728      -0.01477537      -0.00120049      -0.03575989       0.05719797      -0.00359112       0.06021418       0.01646204
O       -2.20549282      11.07108943       0.63384367       0.00017231      -0.00056947       0.00030839      -0.27902707      -0.22280284       0.01262214      -0.01003621       0.01168666       0.01558122       0.01766036       0.00460802      -0.08056792      -0.04646342
O       -4.69844549      10.34678208       1.12685518       0.00069660      -0.00053182       0.00040038      -0.27787115      -0.22110018      -0.01111125       0.01555300       0.01700997      -0.01308713       0.01528104       0.00064265       0.08286865      -0.04198776
O       -6.03604045      11.71707733       2.96984748       0.00028271       0.00222644      -0.00017924      -0.27822603      -0.21942738      -0.00946058       0.01745974      -0.01745239      -0.03619853      -0.08552430       0.00174511      -0.02175596       0.02781014
O       -4.11634792      12.25312145       4.73101282       0.00044317      -0.00028040       0.00111320      -0.27812441      -0.22015163       0.02083823       0.01363971       0.00226756       0.03762133       0.06102644       0.00147138      -0.06183813       0.01194983
Si      -2.62708859       8.59659984       9.04098297      -0.00156227      -0.00085909       0.00132292       0.56292274       0.44639994       0.00147821      -0.00107032       0.00008387      -0.00300933       0.00290487      -0.00821900       0.00310815       0.01076784
Si      -6.12469516      10.60534704       7.20059635      -0.00184264      -0.00012066      -0.00052749       0.56342646       0.44829359       0.00193730      -0.00203974       0.00365952      -0.00433928      -0.00422274      -0.00903438      -0.00306886      -0.00989314
Si      -3.61756350      10.86557633       5.39792209      -0.00065894       0.00121714      -0.00022893       0.56415124       0.44850485      -0.00184180       0.00021018      -0.00143703       0.01130389      -0.00336844      -0.00805821       0.00699479      -0.00583850
O       -3.56067250       9.74527307       9.69335152       0.00122986      -0.00068841      -0.00105059      -0.27781921      -0.21934105       0.00805493      -0.01686749      -0.01720655       0.03590295      -0.08534382       0.00437417       0.02613814       0.02626765
O       -1.67031215       9.21765020       7.88936467       0.00121788       0.00171688      -0.00052544      -0.27861017      -0.22101497      -0.02080207      -0.01682006       0.00015442      -0.04124707       0.05691442       0.00091786       0.06162771       0.01457138
O       -2.17985470      11.12441801       6.09530501       0.00031889      -0.00086724      -0.00081192      -0.27815049      -0.22014011       0.01250045      -0.01537952       0.01653342       0.01231787       0.01756921       0.00270405      -0.08585956      -0.03847385
O       -4.67568555      10.36714996       6.52255873       0.00174903      -0.00033163       0.00088225      -0.27775664      -0.21985363      -0.01183885       0.01232156       0.01546204      -0.01400809       0.01841207       0.00638384       0.08656252      -0.04167023
O       -6.03946280      11.69838660       8.39891944      -0.00024697      -0.00141165      -0.00004024      -0.27965413      -0.22055563      -0.00932134       0.01827190      -0.01758919      -0.03533492      -0.08438045       0.00601108      -0.02403389       0.02599047
O       -4.18019647      12.25333689      10.21553358      -0.00039631      -0.00006859       0.00087614      -0.27840100      -0.22014591       0.02283340       0.01483300       0.00139115       0.03832227       0.05753509      -0.00134219      -0.06234298       0.01547646
Si      -2.62830063       8.51975823      14.52368358       0.00003677      -0.00007793       0.00076334       0.56195440       0.44633667      -0.00163298       0.00153586       0.00042706       0.00187563       0.00406271      -0.00590772      -0.00236504       0.01212617
Si      -6.17380094      10.56722003      12.70219240       0.00145568      -0.00123781       0.00245475       0.56550595       0.44905716      -0.00027420      -0.00320425      -0.00026937      -0.00791065      -0.00412760      -0.00897124      -0.00010340      -0.00826900
Si      -3.69159346      10.85452674      10.86713516       0.00019455       0.00128483       0.00013794       0.56431001       0.44862871       0.00040662       0.00061237       0.00055748       0.00878669      -0.00075974      -0.01058203       0.00327475      -0.00299584
O       -3.55863446       9.66659161      15.17819443      -0.00070167      -0.00009745      -0.00060481      -0.27882706      -0.21992435       0.00979163      -0.01603555      -0.01792142       0.02996931      -0.08631600       0.00803509       0.02654536       0.02687232
O       -1.70070260       9.16109567      13.35350153      -0.00039583       0.00073860      -0.00066764      -0.28019924      -0.22276679      -0.01918471      -0.01386617      -0.00256712      -0.03280963       0.06093319       0.00311314       0.06590755       0.01575113
O       -2.26448280      11.09844020      11.59416550      -0.00046052      -0.00010124      -0.00077399      -0.27755745      -0.21966363       0.01203067      -0.01347020       0.01361679       0.01575229       0.01691057       0.00523605      -0.08654308      -0.04223426
O       -4.75311315      10.32757803      11.97416652      -0.00024441      -0.00168337       0.00041612      -0.27819645      -0.22064376      -0.01094788       0.01221545       0.01629570      -0.01715816       0.01519455       0.00594949       0.08824051      -0.04142929
O       -6.04850984      11.67527639      13.87702275      -0.00060828      -0.00155116      -0.00068863      -0.27898266      -0.22051521      -0.00876176       0.01724156      -0.01549916      -0.03544268      -0.08570742       0.00246739      -0.02347215       0.02512945
O       -4.13609513      12.18976465      15.66340770      -0.00086580      -0.00012819       0.00031129      -0.27808641      -0.22075202       0.02035241       0.01475667       0.00256226       0.03980201       0.06104788       0.00170632      -0.05893087       0.01227513
Si       7.38389530      -0.04815013       3.61976334       0.00070253      -0.00078053       0.00102858       0.56396914       0.44781481      -0.00000206       0.00353275      -0.00237800       0.00584115       0.00112563      -0.01579406       0.00113417       0.01545922
Si       3.81047124       2.01627777       1.80013693      -0.00239692       0.00132089      -0.00007493       0.56318080       0.44699179      -0.00225337      -0.00014116       0.00059070      -0.01231109      -0.00120105      -0.00935420      -0.00340208      -0.00445246
Si       6.30965687       2.26514650      -0.02096873       0.00024071       0.00007701      -0.00039318       0.56466812       0.44972864       0.00376875       0.00196244       0.00069252       0.00626558       0.00110458      -0.01148830       0.00248324      -0.00820469
O        6.40336382       1.06635230       4.26658337      -0.00063666       0.00188322      -0.00041096      -0.27850826      -0.22164880       0.00876495      -0.01534974      -0.01816617       0.03211685      -0.07873541       0.00394502       0.02509505       0.02531145
O        8.30261457       0.60832456       2.45822396       0.00057491      -0.00066558      -0.00048632      -0.27988933      -0.22154494      -0.02023115      -0.01356212       0.00130122      -0.04271680       0.06303046       0.00088072       0.06243441       0.01295980
O        7.76366009       2.49984545       0.65161701       0.00032821       0.00038413      -0.00034380      -0.27806588      -0.22048114       0.01183342      -0.01220260       0.01642505       0.01261208       0.01948540       0.00069398      -0.08349025      -0.04069397
O        5.26514604       1.79881356       1.12495186       0.00242288      -0.00012411       0.00082436      -0.27842732      -0.22032664      -0.01072188       0.01535041       0.01472245      -0.01134448       0.01729588       0.00233073       0.08730561      -0.04561212
O        3.89500932       3.13776430       2.96681167      -0.00044595      -0.00030250       0.00035850      -0.27879178      -0.22030761      -0.00997951       0.01680898      -0.01851904      -0.03333507      -0.08603550       0.00194903      -0.02129996       0.02447077
O        5.82342615       3.60202055       4.74254059       0.00025335      -0.00176637       0.00133232      -0.27847429      -0.22117923       0.01881760       0.01329556       0.00216016       0.04068269       0.06317717       0.00373234      -0.05894293       0.01139375
Si       7.31615036       0.01092298       9.09578419       0.00040210      -0.00055255      -0.00148498       0.56398967       0.44745338       0.00113422       0.00015600       0.00009454      -0.00208664       0.00021522      -0.00933339       0.00805046       0.01277455
Si       3.81858960       1.98162332       7.23943716      -0.00002055      -0.00161996      -0.00013270       0.56044790       0.44671188      -0.00106954      -0.00316934       0.00156509      -0.00531161      -0.00089648      -0.01151804      -0.00291366      -0.00859321
Si       6.31071600       2.21074093       5.41625603       0.00084944       0.00182634       0.00167349       0.56502473       0.44997403       0.00006390      -0.00049148      -0.00013615       0.00856038      -0.00223112      -0.00855913       0.00516626      -0.00424116
O        6.36237384       1.15940245       9.71360951      -0.00007651       0.00140335       0.00196306      -0.27725981      -0.21888458       0.01021954      -0.01798094      -0.01919162       0.03694451      -0.08159477       0.00351190       0.02074692       0.02539071
O        8.28142415       0.61025822       7.94438888       0.00067377       0.00070332      -0.00006486      -0.27804844      -0.21945062      -0.01987069      -0.01654609       0.00193126      -0.04007588       0.06215199       0.00162442       0.06283678       0.01238331
O        7.76275661       2.45429008       6.09369413      -0.00171973      -0.00093242      -0.00228065      -0.27797468      -0.22022799       0.01122674      -0.01471325       0.01541294       0.00872098       0.01941898       0.00222429      -0.08576593      -0.04182481
O        5.26524680       1.73002446       6.55887374      -0.00056696       0.00063065       0.00044395      -0.27818836      -0.22090753      -0.01073553       0.01381131       0.01592508      -0.01238405       0.01548846       0.00189826       0.08464057      -0.04208912
O        3.92224208       3.08792033       8.42234832      -0.00068965       0.00143076      -0.00058715      -0.28419579      -0.22672878      -0.01035879       0.01573420      -0.01272435      -0.03060999      -0.07600834       0.00523908      -0.02464545       0.02648070
O        5.77143291       3.67760195      10.24421153      -0.00175009       0.00354504       0.00006741      -0.28261675      -0.23151055       0.01396193       0.00598141       0.00368312       0.02845866       0.04608067      -0.00611228      -0.05446610       0.01407244
Si       7.35958007      -0.04418474      14.52920274       0.00020639       0.00076198       0.00038953       0.56266960       0.44710547      -0.00088277       0.00088126      -0.00205863       0.00169408       0.00008516      -0.00742806       0.00373464       0.01017095
Si       3.78691644       1.96375868      12.72022727       0.00008497      -0.00013751       0.00048981       0.56270539       0.44810671      -0.00088483      -0.00276809       0.00011217      -0.00948005       0.00037558      -0.00687041      -0.00430567      -0.00940742
Si       6.26432184       2.27497753      10.88933769      -0.00189982      -0.00313232      -0.00057108       0.56105558       0.44784917       0.00115435       0.00100199      -0.00173047       0.00745906       0.00193692      -0.00856790       0.00422846      -0.00186856
O        6.41409848       1.08284079      15.19277607      -0.00024405      -0.00104602      -0.00093803      -0.27811334      -0.22022417       0.00796388      -0.01428843      -0.01939134       0.03134148      -0.08333216       0.00764763       0.02560402       0.02921618
O        8.25782742       0.58238803      13.33418980      -0.00006004       0.00075391      -0.00020419      -0.28074777      -0.22414461      -0.01861884      -0.01473639      -0.00033250      -0.03894682       0.05695606      -0.00680507       0.06049937       0.01774698
O        7.71569071       2.50813579      11.57098874       0.00135823      -0.00061416      -0.00097343      -0.27849513      -0.22092488       0.01301510      -0.01461984       0.01502828       0.01384468       0.01969847       0.00474297      -0.08536506      -0.03997799
O        5.22924231       1.74926766      12.02219492       0.00113526      -0.00072137      -0.00017493      -0.27861018      -0.21951140      -0.00894170       0.01307765       0.01558002      -0.01508011       0.01668986       0.00364243       0.08834590      -0.04321888
O        3.89725860       3.07871122      13.89625456       0.00115236      -0.00010048       0.00002221      -0.27840205      -0.22026870      -0.01062898       0.01494361      -0.01793441      -0.03607067      -0.08597094       0.00326771      -0.01915324       0.02512758