242
Lattice="14.89750973 0.00366048 0.0101785 -7.40883243 12.86812982 -0.03406401 0.03275582 -0.02604548 16.34211805" Properties=species:S:1:pos:R:3:dft_forces:R:3:dft_hirshfeld:R:1:dft_atomic_multipoles:R:9 dft_energy=-970290.467650742 dft_calculation_time=588.578 dft_number_of_scf_cylces=19.0 dft_VBM=-9.56352232 dft_CBM=-2.55886886 dft_fermi_level=-2.59920845 pbc="T T T" tag="V0" total_charge=0
Si       2.36045837       0.02313972       3.63878391      -0.00117694      -0.00019221      -0.00013877       0.56005391       0.44567413      -0.00158386       0.00066569      -0.00309934      -0.00075555       0.00245122      -0.01143750      -0.00232286       0.01371737
Si      -1.16149315       2.00574984       1.81106571      -0.00029066      -0.00196051      -0.00160563       0.55876702       0.44431851      -0.00287352      -0.00172607       0.00008608      -0.00971371      -0.00010280      -0.00714142      -0.00452060      -0.00631307
Si       1.31918753       2.28507405      -0.00579848      -0.00022543       0.00023643       0.00220366       0.55985396       0.44553393       0.00248549       0.00167603       0.00124223       0.00656277      -0.00031738      -0.00903623       0.00218779      -0.00503137
O        1.45429099       1.18821584       4.30237498       0.00095345      -0.00104375      -0.00062647      -0.27980596      -0.22179621       0.00767096      -0.01500468      -0.01613197       0.03624705      -0.08372129       0.00255077       0.02839725       0.03049693
O        3.28439097       0.64090649       2.45931836       0.00095246       0.00064141       0.00144580      -0.28005543      -0.22304524      -0.02091277      -0.01501141       0.00207680      -0.04014001       0.05864185      -0.00062957       0.06028793       0.01390863
O        2.77367438       2.53696641       0.66149076      -0.00145282      -0.00008761       0.00020827      -0.27955621      -0.22268640       0.01113055      -0.01426701       0.01641664       0.01018000       0.02032943       0.00292489      -0.08240442      -0.03943280
O        0.29152729       1.77392803       1.13894412      -0.00009631       0.00048064      -0.00037142      -0.27986167      -0.22263441      -0.01141672       0.01452558       0.01596824      -0.01185902       0.01789984       0.00258846       0.08382552      -0.04183064
O       -1.06051797       3.12009616       2.98131625      -0.00055220       0.00208081      -0.00016106      -0.27999659      -0.22225326      -0.00891025       0.01534874      -0.01814669      -0.03284416      -0.08513132       0.00191084      -0.02270537       0.02973527
O        0.78616578       3.68841740       4.80541264       0.00199759      -0.00127693      -0.00144185      -0.27964056      -0.22211441       0.02010458       0.01569533       0.00057941       0.03838535       0.05785727      -0.00023442      -0.06275779       0.01545986
Si       2.37728921       0.03796788       9.09593603      -0.00023604      -0.00072918       0.00222910       0.55826081       0.44389143      -0.00512943      -0.00104650       0.00392596      -0.00407455       0.01062958      -0.00343997      -0.00296373       0.00974162
Si      -1.16629684       2.00391738       7.25002771      -0.00173002      -0.00173985      -0.00362592       0.55986984       0.44556116      -0.00036900       0.00018786      -0.00220133      -0.01142374      -0.00078677      -0.00929150      -0.00631248      -0.00628192
Si       1.32561926       2.31000192       5.46691391      -0.00363745       0.00019188       0.00002287       0.56049908       0.44663943      -0.00080926      -0.00218161       0.00369096       0.00312623      -0.00420464      -0.01054812      -0.00016778      -0.00329245
O        1.38698888       1.11632788       9.78291333       0.00358057       0.00064333      -0.00194209      -0.28133159      -0.22468113       0.00793013      -0.01558223      -0.01900859       0.02831638      -0.08243668       0.00445715       0.02706934       0.02552278
O        3.32592781       0.77594460       8.01166509       0.00147657       0.00205285      -0.00285319      -0.28227784      -0.22638755      -0.01670477      -0.01165449       0.00250604      -0.03982717       0.06964181       0.01017563       0.05834097       0.01211455
O        2.75262958       2.61064975       6.17037261       0.00026311      -0.00014545       0.00097417      -0.28082541      -0.22418131       0.00867053      -0.01463203       0.01772209       0.00779036       0.01584234      -0.00008678      -0.08466144      -0.03954009
O        0.29279272       1.76796906       6.59323450       0.00061271       0.00066378      -0.00146364      -0.28040071      -0.22294516      -0.01195596       0.01499850       0.01679613      -0.01181366       0.02184924       0.00600002       0.08384883      -0.03933180
O       -1.07118641       3.11874714       8.42580215       0.00423373       0.00162382       0.00067212      -0.27943822      -0.22188223      -0.00921809       0.01522590      -0.01866107      -0.03198227      -0.08324332       0.00258556      -0.02209621       0.02709941
O        0.82814935       3.65003209      10.22764233      -0.00016212      -0.00039452      -0.00033163      -0.28124721      -0.22229535       0.02059533       0.01393450       0.00189993       0.04581260       0.05555558      -0.00365863      -0.06221726       0.01671131
Si       2.37838963      -0.02080687      14.54020002      -0.00193118      -0.00085568       0.00195449       0.55931964       0.44473084      -0.00109327       0.00007656       0.00169950       0.00015910       0.00615839      -0.01041391      -0.00152585       0.01181425
Si      -1.15257526       2.01776457      12.72819136      -0.00130885      -0.00174102      -0.00122221       0.55927394       0.44496709      -0.00126893      -0.00146490      -0.00393639      -0.01221945      -0.00076879      -0.01037536      -0.00756877      -0.00462516
Si       1.33057019       2.26938371      10.91641139      -0.00265514      -0.00068034       0.00174718       0.55603131       0.44467365       0.00575165       0.00278867       0.00013738       0.00809507       0.00032488      -0.00996728       0.00346991      -0.00469995
O        1.43824684       1.13126157      15.17581405       0.00203221       0.00005951      -0.00043634      -0.28015687      -0.22272338       0.00840539      -0.01497390      -0.01837412       0.03252298      -0.08230819       0.00102672       0.02294160       0.02849890
O        3.30077084       0.60125362      13.36037647      -0.00073012       0.00154501       0.00022858      -0.27937665      -0.22104398      -0.02110537      -0.01555536       0.00106340      -0.03904434       0.06078146       0.00123552       0.06335763       0.01414663
O        2.80052449       2.50550435      11.55947834       0.00231437       0.00004288       0.00044292      -0.28082645      -0.22155339       0.01019716      -0.01698451       0.01836233       0.01396867       0.01596581       0.00304226      -0.08260493      -0.04160529
O        0.31409738       1.79511024      12.08386017       0.00028425       0.00148173      -0.00160174      -0.27950544      -0.22289732      -0.01258474       0.01545545       0.01571022      -0.01106665       0.01687655       0.00099457       0.08226151      -0.04190478
O       -1.07542738       3.15640305      13.87968816       0.00218881       0.00027524       0.00172096      -0.28054603      -0.22408283      -0.00893914       0.01605809      -0.01918708      -0.03043506      -0.08108311       0.00521697      -0.01937827       0.02505004
O        0.83833102       3.64521552      15.67487925       0.00046207       0.00051747      -0.00132055      -0.27993157      -0.22237246       0.02033742       0.01506805       0.00085244       0.04007654       0.06041544      -0.00024707      -0.05996692       0.01403691
Si      -0.13980691       4.28739676       3.61431510      -0.00033576      -0.00027514      -0.00046478       0.55902075       0.44538139       0.00021682      -0.00048168       0.00470466      -0.00103830       0.00939505      -0.00633024       0.00045083       0.00696304
Si      -3.64866207       6.31822910       1.76886544      -0.00111160      -0.00163103      -0.00041913       0.55998481       0.44639100      -0.00164594      -0.00146560      -0.00047875      -0.00808262      -0.00028202      -0.01110640      -0.00379938      -0.00555090
Si      -1.15286605       6.57481372      -0.02619802      -0.00063429       0.00168164       0.00331791       0.56014767       0.44512594      -0.00048294       0.00248822      -0.00040011       0.00953551      -0.00135723      -0.01041781       0.00526771      -0.00797517
O       -1.13161069       5.41798324       4.21506373       0.00191100      -0.00079147       0.00097600      -0.27984159      -0.22253419       0.01021936      -0.01737911      -0.02005981       0.03050984      -0.08199362       0.00253707       0.01672275       0.02308152
O        0.80888155       4.92268632       2.46094435      -0.00003297      -0.00026922       0.00020051      -0.27977885      -0.22226060      -0.02024989      -0.01456104       0.00143160      -0.03935552       0.06076871       0.00134931       0.06041072       0.01251554
O        0.29377629       6.81663711       0.65776435      -0.00100111      -0.00120793       0.00070181      -0.28024600      -0.22264482       0.01096880      -0.01588453       0.01634850       0.01122210       0.01771874       0.00747391      -0.08684561      -0.03860224
O       -2.19736707       6.05269474       1.09992526      -0.00027705      -0.00017127      -0.00242275      -0.27995670      -0.22351940      -0.01178058       0.01302986       0.01593284      -0.01183667       0.01971061       0.00252515       0.08105612      -0.04151687
O       -3.55055419       7.46072252       2.91462742       0.00105404       0.00185345      -0.00124860      -0.28031601      -0.22289645      -0.00826445       0.01554350      -0.01771764      -0.03003472      -0.08365872       0.00775031      -0.02795918       0.02893594
O       -1.69273043       7.94019912       4.75688614       0.00192079      -0.00199690      -0.00096194      -0.27949626      -0.22150145       0.02051411       0.01573249       0.00160185       0.04076589       0.06107556       0.00122687      -0.05935844       0.01825017
Si      -0.12975206       4.26729728       9.06840657      -0.00252254      -0.00415711       0.00078866       0.55815888       0.44488755      -0.00305071      -0.00054066       0.00189166      -0.00143746       0.00398840      -0.00762771      -0.00184597       0.00834272
Si      -3.64271516       6.28914748       7.25936217      -0.00037101      -0.00054773      -0.00148804       0.55969342       0.44533362       0.00083690      -0.00013319       0.00010873      -0.00809781      -0.00261381      -0.00737625      -0.00613204      -0.00500049
Si      -1.19653947       6.53503158       5.38685117      -0.00135068       0.00201052       0.00132747       0.55904948       0.44359598       0.00195967       0.00144875      -0.00409838       0.01274505       0.00027686      -0.00890601       0.00883113      -0.00377733
O       -1.08669467       5.39820201       9.71775846       0.00274952       0.00290413       0.00072469      -0.28074168      -0.22382552       0.00930573      -0.01527788      -0.01961128       0.02984559      -0.08182824       0.00431255       0.02077662       0.02603732
O        0.80081219       4.91475329       7.90600363       0.00073088       0.00355367      -0.00189029      -0.28090469      -0.21982689      -0.01592639      -0.00871954       0.00533145      -0.02894563       0.06930047       0.00140909       0.07534025       0.02037248
O        0.28027233       6.73711539       6.01268904      -0.00133667      -0.00016612       0.00170652      -0.27831320      -0.22046935       0.01232480      -0.01632527       0.01593639       0.00916577       0.01782317      -0.00055759      -0.08435049      -0.04311349
O       -2.20661008       6.04426450       6.55411679      -0.00138597       0.00022478      -0.00260758      -0.27956693      -0.22145115      -0.01091436       0.01481135       0.01710463      -0.01101676       0.01933582      -0.00006025       0.08760656      -0.03962992
O       -3.51595743       7.40552690       8.42784399       0.00065149       0.00060022      -0.00048034      -0.27954767      -0.22229589      -0.00789473       0.01524086      -0.01766372      -0.03320823      -0.08232237       0.00318144      -0.02505820       0.02747476
O       -1.61966198       7.93269337      10.21887375      -0.00164512      -0.00152708      -0.00069062      -0.27974882      -0.22267678       0.02119813       0.01520862       0.00243804       0.04099996       0.05802622       0.00080015      -0.05744143       0.01273618
Si      -0.08385891       4.27806037      14.49840993      -0.00197079      -0.00150101       0.00109716       0.55989692       0.44635851       0.00119587      -0.00081204       0.00410729      -0.00026594       0.00564002      -0.01147376       0.00148223       0.00510563
Si      -3.60484215       6.29278909      12.70574853       0.00047390      -0.00084838       0.00306414       0.56093305       0.44713168      -0.00120558       0.00010229      -0.00148053      -0.00979223      -0.00100056      -0.01030230      -0.00473766      -0.00436973
Si      -1.12733745       6.53523859      10.87538944      -0.00248130      -0.00021687      -0.00035639       0.55927314       0.44587797       0.00347280       0.00241690      -0.00094278       0.01037291       0.00080618      -0.00752504       0.00467873      -0.00665719
O       -1.00125679       5.45094286      15.13015142       0.00033105      -0.00084482       0.00014871      -0.28009379      -0.22227196       0.00946247      -0.01549612      -0.01696570       0.03716267      -0.08481721      -0.00082809       0.01962685       0.03002720
O        0.86716011       4.85430044      13.31636822       0.00130287       0.00111473       0.00002130      -0.28062304      -0.22338190      -0.01905778      -0.01367032      -0.00055685      -0.03959070       0.05864552      -0.00367648       0.06353655       0.01171108
O        0.34950156       6.74224382      11.50285976       0.00142928      -0.00025982       0.00008298      -0.28102872      -0.22500890       0.01114750      -0.01311573       0.01407342       0.01404720       0.02147859       0.01182278      -0.08200934      -0.03824125
O       -2.14489039       6.06084720      12.04543498       0.00038501       0.00184608       0.00016534      -0.27991714      -0.22366079      -0.01163980       0.01389679       0.01581688      -0.01043241       0.01881751      -0.00179695       0.08083464      -0.04281835
O       -3.52384819       7.42533413      13.86578015       0.00074640      -0.00097629      -0.00036569      -0.28009704      -0.22313037      -0.00866425       0.01488910      -0.01800619      -0.03206065      -0.08106754       0.00183928      -0.02072415       0.02764013
O       -1.62780856       7.94414235      15.67042090      -0.00005385      -0.00086668      -0.00165988      -0.28025075      -0.22242395       0.02021844       0.01473107       0.00236083       0.03835161       0.05872861       0.00143508      -0.06309424       0.01638678
Si      -2.60004225       8.58778247       3.57835103      -0.00076503       0.00115216      -0.00326282       0.55880990       0.44414663      -0.00068800      -0.00044836       0.00110454      -0.00205621       0.00596955      -0.00899415       0.00041712       0.01038712
Si      -6.09173312      10.60796463       1.81617429      -0.00027035      -0.00053672      -0.00062755       0.56109208       0.44750932       0.00056409       0.00164724      -0.00125852      -0.01049111      -0.00243042      -0.01103677      -0.00495649      -0.00385657
Si      -3.61517075      10.86642058      -0.01305078       0.00107443      -0.00073508       0.00262126       0.55996538       0.44627243      -0.00083809       0.00059771      -0.00053847       0.00728064      -0.00219422      -0.01108242       0.00411562      -0.00501117
O       -3.54134046       9.73904859       4.21588937      -0.00033210      -0.00193919       0.00133142      -0.27945631      -0.22160954       0.00878358      -0.01554663      -0.01937196       0.03260243      -0.08283244      -0.00056028       0.01861626       0.02702150
O       -1.63422384       9.21352537       2.43774215      -0.00135663      -0.00045533       0.00279563      -0.28009099      -0.22306098      -0.02058360      -0.01446961       0.00191790      -0.03931718       0.05930128       0.00236961       0.06106931       0.01096907
O       -2.15599270      11.11203495       0.64328868      -0.00213952       0.00064312       0.00001130      -0.28013208      -0.22339207       0.01146359      -0.01461805       0.01664870       0.01198051       0.02036511       0.00377902      -0.08205698      -0.04033401
O       -4.63639968      10.37137585       1.14616072      -0.00048765      -0.00042980      -0.00100084      -0.28000425      -0.22316053      -0.01188115       0.01333789       0.01588746      -0.01011431       0.02142467      -0.00082530       0.08175824      -0.04196692
O       -6.01161778      11.75538140       2.96401592      -0.00093127       0.00226899      -0.00084160      -0.28008555      -0.22384966      -0.00776708       0.01455087      -0.01782585      -0.03132039      -0.07830250       0.00429879      -0.02187763       0.02700891
O       -4.10023371      12.25593044       4.75682978       0.00030948      -0.00115536      -0.00220863      -0.28048778      -0.22282960       0.02021048       0.01726855       0.00048345       0.03865307       0.06182652       0.00714850      -0.06038045       0.01405091
Si      -2.57165317       8.55710579       9.06156818      -0.00008380       0.00051670      -0.00026650       0.56029295       0.44607024      -0.00045203      -0.00041633       0.00187984       0.00026152       0.00646471      -0.00902210      -0.00034030       0.01069479
Si      -6.06825515      10.62960136       7.21921677       0.00105947       0.00037904      -0.00099014       0.55995312       0.44538159       0.00153488      -0.00223274      -0.00412462      -0.00663714      -0.00121645      -0.00799512      -0.00794325      -0.00341708
Si      -3.60073429      10.85351234       5.39082736       0.00168772       0.00199841       0.00181593       0.55923418       0.44371036       0.00111546       0.00011246       0.00214895       0.00972347      -0.00110905      -0.00967889       0.00299018      -0.00600136
O       -3.52074810       9.69557461       9.71152759       0.00104703      -0.00020628       0.00008803      -0.28045707      -0.22354380       0.00863295      -0.01462080      -0.01845635       0.02927507      -0.08258970       0.00345900       0.02205226       0.02799901
O       -1.65069291       9.19505996       7.88781960      -0.00144043       0.00000551      -0.00078708      -0.27975140      -0.22195426      -0.01852881      -0.01307439       0.00224151      -0.03624661       0.06409098       0.00192110       0.06308870       0.01441884
O       -2.13683640      11.06769543       6.04709788      -0.00214110      -0.00302980      -0.00077233      -0.27906979      -0.22068802       0.01208886      -0.01441249       0.01569426       0.00693607       0.02502353      -0.00010278      -0.08427344      -0.04363878
O       -4.62438549      10.35861792       6.54313071      -0.00081769      -0.00012051      -0.00096110      -0.28045696      -0.22208881      -0.01025578       0.01546698       0.01749949      -0.00726261       0.02274842       0.00023889       0.08718983      -0.04343773
O       -5.95615630      11.79888816       8.33330135      -0.00116386      -0.00076341      -0.00041861      -0.28024944      -0.22271605      -0.00751349       0.01215361      -0.01515969      -0.02907059      -0.08750101       0.00559830      -0.03192269       0.03277159
O       -4.10028160      12.22144902      10.19996604      -0.00070422       0.00015594      -0.00068828      -0.27945350      -0.22258351       0.01804991       0.01264609       0.00225379       0.04227796       0.06448228       0.00411768      -0.05639695       0.01394129
Si      -2.57098343       8.56780867      14.50659226       0.00086355       0.00169797       0.00014938       0.55949653       0.44582003      -0.00018333      -0.00102579      -0.00005555      -0.00088320       0.00337539      -0.01150518       0.00020027       0.00937686
Si      -6.07116088      10.59587739      12.69021417      -0.00026485      -0.00187529      -0.00070470       0.55953346       0.44540996      -0.00149503       0.00014002       0.00010311      -0.00821898      -0.00061663      -0.00946921      -0.00302829      -0.00441656
Si      -3.59406933      10.83459010      10.86335012       0.00097062      -0.00022295       0.00137110       0.56005732       0.44596296       0.00203113       0.00039922      -0.00068414       0.01036926      -0.00118157      -0.00887664       0.00425104      -0.00465999
O       -3.50707843       9.71462602      15.16263210       0.00097865      -0.00050568       0.00008041      -0.28019704      -0.22321358       0.00841601      -0.01515190      -0.01803520       0.03289488      -0.08126427       0.00235780       0.02221626       0.02920334
O       -1.63701177       9.18864746      13.33410356      -0.00216038       0.00010418       0.00095014      -0.28038616      -0.22316226      -0.02042512      -0.01489817       0.00201347      -0.04320837       0.05929255      -0.00060140       0.05955317       0.01410103
O       -2.12921045      11.06964804      11.51234895      -0.00214952       0.00058927       0.00118418      -0.27984753      -0.22294067       0.01145597      -0.01508016       0.01686359       0.01052356       0.02078944       0.00225568      -0.08184510      -0.03967388
O       -4.61551976      10.34942524      12.02654349      -0.00122004       0.00084808      -0.00100741      -0.27994651      -0.22286532      -0.01183460       0.01470711       0.01633727      -0.00915966       0.01931878       0.00211819       0.08328069      -0.04146933
O       -5.97630959      11.69300004      13.88042748       0.00252859       0.00007341       0.00029723      -0.27964556      -0.22234998      -0.00875026       0.01646691      -0.01884985      -0.03327601      -0.08086809       0.00071914      -0.02196588       0.02673726
O       -4.08764948      12.23291684      15.67383390      -0.00111083       0.00031089      -0.00162541      -0.27962715      -0.22224575       0.02104660       0.01508351       0.00161563       0.03932950       0.05802756      -0.00013419      -0.06093118       0.01349867
Si       7.28926709       0.00619173       3.68792441      -0.00275347       0.00187143       0.00014839       0.56157309       0.44808229       0.00388705      -0.00048585      -0.00393068       0.00221642      -0.00069384      -0.01435111       0.00348614       0.00927449
Si       3.80088510       2.03026898       1.81088850       0.00159974      -0.00146554      -0.00217800       0.55941108       0.44528887       0.00260380      -0.00136372      -0.00171418      -0.00732203      -0.00331660      -0.00772844      -0.00738544      -0.00544921
Si       6.29333476       2.25106498       0.01046200       0.00083465      -0.00133810      -0.00027442       0.55927745       0.44429357      -0.00191544      -0.00040851       0.00044611       0.00805530      -0.00461778      -0.00841415       0.00490034      -0.00536844
O        6.31786557       1.09962849       4.39441855       0.00298067      -0.00225719      -0.00111038      -0.28044171      -0.22416557       0.00809385      -0.01254552      -0.01701926       0.02787681      -0.08042658       0.01036340       0.02132084       0.02843733
O        8.22095594       0.67545543       2.54069751      -0.00014928       0.00298541       0.00078191      -0.28066168      -0.22307928      -0.01747319      -0.01439415       0.00149029      -0.04551612       0.06804356       0.00506518       0.05704044       0.01277829
O        7.74269100       2.51143150       0.67818294      -0.00155869       0.00014089       0.00100183      -0.27999783      -0.22270622       0.01096287      -0.01473699       0.01672068       0.00781260       0.02070596       0.00022477      -0.08367476      -0.04352964
O        5.25673193       1.76450080       1.15708550      -0.00204105       0.00111302      -0.00077901      -0.28003431      -0.22211811      -0.01079639       0.01634518       0.01716797      -0.00880591       0.01985907       0.00682010       0.08622785      -0.04049756
O        3.90349955       3.15537436       2.97497050      -0.00047152       0.00024671       0.00178082      -0.28027555      -0.22283734      -0.00893820       0.01614719      -0.01727383      -0.03296457      -0.08346447       0.00516210      -0.02409677       0.02736640
O        5.81169625       3.66374854       4.76867087      -0.00005214      -0.00120402       0.00127887      -0.28078368      -0.22264972       0.01998330       0.01572568       0.00181438       0.03543557       0.07009809       0.00561955      -0.05926866       0.01137278
Si       7.35357655      -0.06014580       9.06788768       0.00217173       0.00004942      -0.00015878       0.56153255       0.44645323       0.00203845       0.00377439       0.00109428       0.00417700       0.00722519      -0.00171974       0.00105965       0.01189188
Si       3.77775729       2.18715005       7.35675517       0.00325383      -0.00625298      -0.00204861       0.56203828       0.44977268       0.01101907       0.00523472       0.00249842      -0.00161981      -0.01231844      -0.01339224      -0.00157415       0.00201901
Si       6.27302604       2.29478159       5.49842805       0.00005411       0.00102592      -0.00016681       0.56224611       0.44776767      -0.00707401      -0.00016538      -0.00341560       0.01730760      -0.00822257      -0.01438264       0.00827498      -0.00752671
O        6.44952301       1.07416318       9.78143409      -0.00124036      -0.00058615       0.00087216      -0.27984822      -0.22360842       0.00745841      -0.01011605      -0.01494571       0.02671584      -0.08527285      -0.00022467       0.03102612       0.03247664
O        8.27784615       0.60787779       7.91368078       0.00024873       0.00076993      -0.00044674      -0.27991680      -0.22229895      -0.01797999      -0.01472984      -0.00081343      -0.04013756       0.06098780       0.00120828       0.06098193       0.01885878
O        7.74630496       2.51837678       6.13107084      -0.00040500      -0.00000434       0.00003837      -0.28054841      -0.22304437       0.01195374      -0.01473350       0.01581039       0.01027375       0.02342891       0.00423871      -0.08251230      -0.04299428
O        5.24347866       1.95057703       6.70365532      -0.00295199      -0.00013711       0.00179639      -0.28074371      -0.22391288      -0.00933871       0.01519389       0.01502921      -0.00679362       0.02336159       0.00119232       0.08515343      -0.04777216
O        3.78949941       3.34473733       8.50923282      -0.00438159       0.00008164       0.00013865      -0.28658280      -0.23050636      -0.00519768       0.01478893      -0.01411183      -0.03378614      -0.05674993      -0.00660086      -0.02536993       0.01376556
O        5.77085579       3.60093309      10.26258560       0.00131741       0.00499254      -0.00208480      -0.28332463      -0.22205643       0.01602103       0.01092479      -0.00057862       0.04491181       0.07164929       0.01254480      -0.05970776       0.01675533
Si       7.35131280      -0.04846581      14.52131880      -0.00199825      -0.00097733       0.00176785       0.55931300       0.44485206       0.00075972       0.00087711       0.00131904       0.00122131       0.00707180      -0.00728670      -0.00064360       0.00938407
Si       3.82637757       1.98619331      12.70830693      -0.00111533      -0.00226285      -0.00128137       0.55812837       0.44513721       0.00061050      -0.00111887      -0.00313130      -0.00703286      -0.00235962      -0.00628959      -0.00611921      -0.00444646
Si       6.31284893       2.22424796      10.91318652      -0.00170914      -0.00396054       0.00424091       0.55817519       0.44424742      -0.00006136      -0.00506575       0.00093083       0.01299119      -0.00604905      -0.00041322       0.00592976      -0.00233286
O        6.42263364       1.08729727      15.20332703       0.00178339       0.00038236       0.00159875      -0.27987365      -0.22200677       0.00882270      -0.01444113      -0.01652493       0.03118251      -0.08572233       0.00297668       0.02668189       0.02980006
O        8.27791135       0.60018877      13.35951675       0.00184844      -0.00047021       0.00013465      -0.27968739      -0.22101940      -0.01970260      -0.01729166       0.00041891      -0.03806858       0.06352360       0.00817598       0.06306310       0.01515608
O        7.75669287       2.51178546      11.58753404      -0.00128216       0.00168720       0.00052144      -0.28089202      -0.22384466       0.01080281      -0.01433164       0.01648882       0.00808834       0.01960927       0.00249561      -0.08362408      -0.04158285
O        5.27751713       1.70891766      12.05077647      -0.00098071       0.00184931      -0.00203960      -0.28083630      -0.22421531      -0.01149841       0.01434643       0.01714687      -0.00790208       0.02036641       0.00564039       0.08369487      -0.03847655
O        3.93882578       3.11611017      13.86547409       0.00137400       0.00139776       0.00040708      -0.28037580      -0.22251271      -0.00917554       0.01550925      -0.01667006      -0.03218002      -0.08436662       0.00241629      -0.02603095       0.02718550