242
Lattice="14.90129945 -0.00659181 0.00729582 -7.47657137 12.91749172 -0.02620103 0.02458327 -0.01937935 16.29347173" Properties=species:S:1:pos:R:3:dft_forces:R:3:dft_hirshfeld:R:1:dft_atomic_multipoles:R:9 dft_energy=-970293.354171919 dft_calculation_time=800.534 dft_number_of_scf_cylces=23.0 dft_VBM=-4.25438786 dft_CBM=-2.59177365 dft_fermi_level_up=-2.63132517 dft_fermi_level_down=-2.63211296 pbc="T T T" tag="Vm" total_charge=-1
Si       2.38438482       0.01916467       3.62057363      -0.00056141       0.00134183       0.00055180       0.55683731       0.44361286      -0.00045499       0.00135855      -0.00231669       0.00260338       0.00292490      -0.00982618      -0.00142804       0.01267831
Si      -1.17117497       2.02786785       1.81318687       0.00114173       0.00048790      -0.00010123       0.55619836       0.44260538      -0.00124447      -0.00015751       0.00173114      -0.00870259      -0.00228079      -0.00798549      -0.00290700      -0.00625168
Si       1.31074249       2.29431141      -0.02019910       0.00082034       0.00027730      -0.00082546       0.55705997       0.44410296       0.00114545      -0.00130052      -0.00152776       0.01048897      -0.00130195      -0.00647561       0.00423580      -0.00172129
O        1.47988831       1.17047377       4.30668835       0.00137453      -0.00005281      -0.00044255      -0.28247784      -0.22562287       0.00794804      -0.01232725      -0.01472612       0.03339169      -0.08403296       0.00477732       0.03105704       0.03114216
O        3.29629791       0.65044340       2.43670202       0.00014569      -0.00043930       0.00023913      -0.28226038      -0.22599367      -0.01946988      -0.01469011       0.00133996      -0.03909282       0.05830965      -0.00079768       0.05918895       0.01686675
O        2.75397352       2.55994346       0.66227263       0.00011621       0.00106227      -0.00008442      -0.28140320      -0.22519097       0.01149697      -0.01333104       0.01619739       0.01081187       0.01985208       0.00117176      -0.08276590      -0.03949216
O        0.27305639       1.79262552       1.12324745      -0.00029229       0.00003627       0.00053279      -0.28216218      -0.22552369      -0.00999150       0.01332260       0.01538225      -0.01084471       0.01848099       0.00487837       0.08567227      -0.04121439
O       -1.06882589       3.13915231       2.98819260      -0.00096736      -0.00070807      -0.00040108      -0.28191391      -0.22508097      -0.00852592       0.01516497      -0.01664651      -0.03506603      -0.08275981      -0.00060408      -0.02143293       0.02802809
O        0.82124582       3.67801887       4.77958636      -0.00132751       0.00118257      -0.00129127      -0.28130506      -0.22457011       0.01938989       0.01544742       0.00149214       0.03832384       0.05998447       0.00140580      -0.06214249       0.01150387
Si       2.37166475       0.02978809       9.06093860      -0.00063604      -0.00075738      -0.00072771       0.55370485       0.44141913      -0.00151691       0.00265571       0.00414607      -0.00053229       0.01389467      -0.00471951       0.00356741       0.00796371
Si      -1.16915187       2.02668795       7.22616905      -0.00074404       0.00092686       0.00010657       0.55611953       0.44293920       0.00084588      -0.00077816      -0.00068144      -0.00922707      -0.00425709      -0.00740750      -0.00520268      -0.00557517
Si       1.35239978       2.30670541       5.46184106       0.00141596      -0.00054566       0.00125778       0.55634722       0.44380219      -0.00155566      -0.00083372       0.00387269       0.00222365      -0.00500042      -0.00644953      -0.00267546      -0.01046158
O        1.38776496       1.12347763       9.73415333      -0.00051258       0.00081856       0.00075695      -0.28236053      -0.22574977       0.01024808      -0.01592049      -0.01698353       0.02766935      -0.08241342       0.00366671       0.02537497       0.02627179
O        3.31386768       0.72512601       7.94843067       0.00128447      -0.00082543      -0.00022511      -0.28591931      -0.23119406      -0.01421584      -0.01432061       0.00282993      -0.03984042       0.06205288       0.00828303       0.05792270       0.01275111
O        2.77235464       2.60387963       6.16709838      -0.00178382       0.00062462      -0.00132900      -0.28397294      -0.22812499       0.01142932      -0.00923870       0.02030018       0.00915651       0.01840257       0.00044057      -0.08385452      -0.03816137
O        0.28856051       1.78488192       6.56962982      -0.00006837      -0.00108496       0.00029383      -0.28174161      -0.22469722      -0.00980847       0.01483802       0.01700330      -0.01051517       0.02160801       0.00644611       0.08528193      -0.04091439
O       -1.08806965       3.15276100       8.38836697       0.00071526      -0.00033662       0.00030249      -0.28199016      -0.22562800      -0.00781181       0.01442710      -0.01638491      -0.03086149      -0.08230861       0.00077838      -0.02366605       0.02800966
O        0.78942337       3.64979676      10.20848122       0.00021587       0.00008426      -0.00001029      -0.27766289      -0.21647858       0.02384040       0.01347852       0.00832850       0.04689592       0.05852301      -0.00285760      -0.06313052       0.01696475
Si       2.40392579      -0.01187134      14.48547402       0.00050251      -0.00133844      -0.00109882       0.55635530       0.44365611       0.00184656       0.00005937       0.00129609      -0.00084486       0.00809799      -0.00864597       0.00372318       0.01109172
Si      -1.15086974       2.03451966      12.67624310       0.00067880      -0.00047528      -0.00080778       0.55372197       0.44106851      -0.00033334      -0.00102313      -0.00363622      -0.00736291      -0.00236742      -0.01013284      -0.00555777      -0.00398450
Si       1.32500311       2.27364128      10.87278303      -0.00027256       0.00031943      -0.00027521       0.55646631       0.44474395       0.00888334      -0.00168760       0.00242571       0.01559610       0.00007322      -0.00798774      -0.00201944      -0.00618945
O        1.45204782       1.12640512      15.13504087      -0.00030289       0.00000427       0.00042801      -0.28157844      -0.22543503       0.00783823      -0.01410590      -0.01681359       0.03079615      -0.08179449       0.00303685       0.02502640       0.02854889
O        3.33308346       0.61844997      13.31764883       0.00017281       0.00100703       0.00098618      -0.28269310      -0.22661383      -0.01832725      -0.01658812       0.00163391      -0.03633794       0.05950035       0.00076389       0.05872907       0.01470997
O        2.78718126       2.49932606      11.51901782      -0.00019451       0.00036092      -0.00078290      -0.27792734      -0.21927110       0.01097653      -0.01563224       0.01811440       0.00555361       0.02252412       0.00188017      -0.08222042      -0.03914255
O        0.31459599       1.78528229      12.04433070      -0.00015821      -0.00053427       0.00056977      -0.28226540      -0.22632096      -0.01107747       0.01541905       0.01799448      -0.00916865       0.02008363       0.00170714       0.08045174      -0.04065336
O       -1.08415830       3.17660548      13.82369911      -0.00076978       0.00048177      -0.00051126      -0.28350405      -0.22728055      -0.00859432       0.01499588      -0.01761480      -0.03014737      -0.08194047       0.00427838      -0.01959738       0.02612938
O        0.82483776       3.65612261      15.60433930       0.00019897      -0.00000527       0.00021762      -0.28201134      -0.22545422       0.02037221       0.01197904       0.00099214       0.03975891       0.06230803       0.00140428      -0.05908549       0.01113790
Si      -0.13625824       4.29660293       3.63010827       0.00179756       0.00036585       0.00175112       0.55592092       0.44258363       0.00014892       0.00109301       0.00082632       0.00332604       0.00686817      -0.00840163      -0.00110023       0.00979107
Si      -3.70161255       6.34644173       1.76746675      -0.00004604      -0.00053172      -0.00154339       0.55750445       0.44463547      -0.00109006      -0.00207826      -0.00089816      -0.00824399      -0.00009501      -0.01232718      -0.00394859      -0.00633309
Si      -1.19331619       6.58533647      -0.02493176       0.00037355       0.00042247      -0.00023986       0.55768195       0.44378051      -0.00068446       0.00142734      -0.00116403       0.01165958      -0.00439219      -0.00794684       0.00649222      -0.00656293
O       -1.09843392       5.42559645       4.27555982       0.00022409       0.00046837       0.00022138      -0.28262327      -0.22612998       0.00904199      -0.01381000      -0.01638664       0.03103641      -0.08255089       0.00504235       0.02607840       0.02748897
O        0.77927331       4.94214490       2.45754284      -0.00066131      -0.00030458      -0.00090129      -0.28176699      -0.22428788      -0.01969494      -0.01460732       0.00105404      -0.03919289       0.06235492       0.00147859       0.06132704       0.01497566
O        0.24936380       6.83456064       0.66475113       0.00013994       0.00000154      -0.00020240      -0.28147622      -0.22401613       0.01005316      -0.01622531       0.01662653       0.00988866       0.01781748       0.00727018      -0.08790237      -0.03805574
O       -2.24866840       6.07837314       1.10102649      -0.00103194       0.00023791      -0.00026073      -0.28236875      -0.22647541      -0.01047679       0.01327713       0.01563413      -0.01015036       0.01933721       0.00625212       0.08238628      -0.04041823
O       -3.60170019       7.48797060       2.91471951       0.00097211       0.00031272       0.00059584      -0.28214938      -0.22533849      -0.00870361       0.01533530      -0.01663832      -0.03162777      -0.08359751       0.00605816      -0.02575653       0.02793680
O       -1.71757627       7.94371754       4.74501375      -0.00045293       0.00011175      -0.00005303      -0.28157463      -0.22453182       0.01809882       0.01395567       0.00149149       0.04261024       0.06316310      -0.00138829      -0.05950436       0.01537705
Si      -0.15112579       4.29511002       9.05574730      -0.00099415       0.00081650       0.00146398       0.55620371       0.44387995      -0.00114845       0.00242294       0.00343680       0.00253870       0.01049355      -0.00859717       0.00069878       0.00987307
Si      -3.69311856       6.30381900       7.25593432      -0.00038561      -0.00018152      -0.00015805       0.55488951       0.44206015       0.00081003      -0.00029256      -0.00048157      -0.00573498      -0.00221875      -0.00529223      -0.00666894      -0.00274088
Si      -1.20491545       6.56623943       5.42530079      -0.00014079      -0.00187236      -0.00007540       0.55513766       0.44205809       0.00027135       0.00008813      -0.00013680       0.00688809      -0.00312004      -0.00742288       0.00255002      -0.00898985
O       -1.12153188       5.41459568       9.70833425       0.00010925      -0.00037384      -0.00117900      -0.28256389      -0.22558056       0.01057169      -0.01469628      -0.01591838       0.02984957      -0.08250019       0.00404332       0.02306467       0.02619949
O        0.77615554       4.95764277       7.90607238      -0.00005308      -0.00077348      -0.00139510      -0.28174505      -0.22120229      -0.01683086      -0.01050681       0.00749679      -0.03596956       0.06588139       0.00319121       0.07055200       0.01958913
O        0.23530702       6.83011487       6.10218254       0.00014341       0.00204619      -0.00012365      -0.28354864      -0.22857194       0.01029156      -0.01142994       0.01765283       0.01101858       0.01553625       0.00353749      -0.08315072      -0.04040653
O       -2.25419481       6.07200796       6.55503664      -0.00020202       0.00106941      -0.00011032      -0.28168265      -0.22510149      -0.01002720       0.01355983       0.01540066      -0.01308306       0.01870314       0.00369162       0.08756392      -0.04032646
O       -3.58903043       7.43448196       8.41265990      -0.00052056      -0.00019366       0.00067335      -0.28102408      -0.22421758      -0.00834004       0.01584416      -0.01753470      -0.03389275      -0.08173822       0.00423851      -0.02231078       0.02545635
O       -1.68745853       7.95574528      10.18877468       0.00001202       0.00000390       0.00004962      -0.28110138      -0.22402932       0.01940106       0.01480584       0.00363425       0.03861570       0.06087076       0.00145649      -0.05962464       0.01260557
Si      -0.10043641       4.30939713      14.43815656      -0.00021298       0.00004423      -0.00010808       0.55501480       0.44321671       0.00453649       0.00037373       0.00393562      -0.00185939       0.01062948      -0.01196058       0.00944025       0.00524549
Si      -3.67003398       6.32428875      12.66871337      -0.00045504      -0.00107988      -0.00119448       0.55632386       0.44336869      -0.00054574       0.00089204      -0.00220228      -0.00702497      -0.00071315      -0.00747871      -0.00679390      -0.00559474
Si      -1.17861195       6.56552682      10.85223941      -0.00157178      -0.00045487       0.00221475       0.55436295       0.44182582       0.00188610      -0.00033158      -0.00156290       0.00742349      -0.00384409      -0.00328547       0.00104838      -0.00909350
O       -1.03927618       5.45273723      15.10091617       0.00042434      -0.00001218       0.00048160      -0.28179083      -0.22539364       0.00840638      -0.01572738      -0.01512400       0.03470274      -0.08427375       0.00036418       0.02221705       0.02877184
O        0.83433941       4.90765693      13.26589341       0.00086908      -0.00114452      -0.00003104      -0.28428594      -0.22852187      -0.01485073      -0.01780050       0.00281888      -0.03971863       0.05911716      -0.00446021       0.06145695       0.01366798
O        0.27643871       6.80612183      11.49433777       0.00182300      -0.00020249      -0.00014426      -0.28239286      -0.22719262       0.01001215      -0.01257426       0.01859237       0.01012314       0.01821077       0.01197962      -0.08106180      -0.04578276
O       -2.21506887       6.08819657      12.00637327      -0.00018837       0.00110864      -0.00125838      -0.28231287      -0.22683129      -0.01056675       0.01254454       0.01661082      -0.01054981       0.01852582       0.00049601       0.08247017      -0.04195177
O       -3.57896135       7.45688385      13.83024099      -0.00024891       0.00068529       0.00023804      -0.28198304      -0.22532080      -0.00972992       0.01334268      -0.01748634      -0.03159920      -0.08122355       0.00040756      -0.02131645       0.02711603
O       -1.67308491       7.96096817      15.61817354      -0.00042849       0.00029384       0.00006352      -0.28200522      -0.22476755       0.01899867       0.01284483       0.00289259       0.03745970       0.06048885       0.00269032      -0.06259434       0.01507598
Si      -2.64351607       8.60223180       3.59139599      -0.00192399      -0.00011157       0.00199188       0.55557806       0.44178281      -0.00211041       0.00147959      -0.00063940       0.00063378       0.00467254      -0.00920936      -0.00284252       0.01040682
Si      -6.14742422      10.65198303       1.81282614      -0.00039722       0.00022999       0.00070418       0.55801637       0.44520487      -0.00048561       0.00109100      -0.00246401      -0.01075574      -0.00102370      -0.01041845      -0.00567830      -0.00296950
Si      -3.66046268      10.90053296      -0.01024611      -0.00015357       0.00012754       0.00057068       0.55663860       0.44430650       0.00046088      -0.00011604      -0.00107173       0.00914736      -0.00172282      -0.00828627       0.00472991      -0.00313336
O       -3.57522676       9.74866229       4.24941736      -0.00022801      -0.00045026      -0.00090129      -0.28205329      -0.22519493       0.00767037      -0.01291673      -0.01778344       0.03096915      -0.08324526       0.00202407       0.02220882       0.02893526
O       -1.69312867       9.24015794       2.44528459       0.00085116       0.00016114      -0.00164877      -0.28217231      -0.22558719      -0.01986188      -0.01400328       0.00147027      -0.04008464       0.06034072       0.00318508       0.06168074       0.01154660
O       -2.20158769      11.13986604       0.65148142       0.00061219      -0.00038023      -0.00053939      -0.28178989      -0.22539426       0.01075035      -0.01467275       0.01641733       0.01020330       0.02128065       0.00280628      -0.08199336      -0.04104267
O       -4.69038640      10.41346396       1.14563814       0.00039892      -0.00009952      -0.00017357      -0.28217410      -0.22538266      -0.01072989       0.01354570       0.01521885      -0.00774461       0.02204469       0.00124050       0.08370730      -0.04179760
O       -6.06490064      11.80999616       2.94885017       0.00026338      -0.00036085      -0.00070993      -0.28238688      -0.22694267      -0.00749323       0.01406135      -0.01696603      -0.03162211      -0.07850921       0.00395019      -0.02099864       0.02664209
O       -4.12620271      12.28133701       4.71786088       0.00050296      -0.00124093      -0.00029450      -0.28139832      -0.22517628       0.01881028       0.01499140       0.00078619       0.03876145       0.06321556       0.00580247      -0.05884860       0.01224178
Si      -2.63318321       8.58365512       9.03310581       0.00088176       0.00040289       0.00047069       0.55718399       0.44377140       0.00194258       0.00077579       0.00145129       0.00256262       0.00774742      -0.00963670      -0.00066447       0.01220404
Si      -6.13634675      10.67488796       7.20686008       0.00042333      -0.00090837       0.00040798       0.55472344       0.44135117       0.00215727      -0.00260653      -0.00269859      -0.00722434      -0.00177282      -0.00748186      -0.00727707      -0.00136074
Si      -3.64210430      10.89443455       5.39549229       0.00062414       0.00186999       0.00099682       0.55590811       0.44217985       0.00218357       0.00010452       0.00262360       0.00811210      -0.00047961      -0.00831175       0.00170164      -0.00696482
O       -3.56746887       9.74188929       9.67165048       0.00008484       0.00019642      -0.00056196      -0.28135463      -0.22456276       0.00853125      -0.01452513      -0.01760329       0.02972879      -0.08283692       0.00315696       0.02222962       0.02804090
O       -1.71600752       9.19806495       7.84340221      -0.00069998      -0.00083439      -0.00055064      -0.28016085      -0.22264774      -0.02103054      -0.01553374       0.00162524      -0.03942508       0.05713610       0.00017823       0.06054461       0.01400590
O       -2.18860597      11.12334227       6.06769414       0.00002194       0.00011081      -0.00015075      -0.28150911      -0.22434684       0.01252332      -0.01187312       0.01600987       0.01022193       0.02550180       0.00184205      -0.08179546      -0.04223628
O       -4.68532214      10.42403538       6.53807761      -0.00044722      -0.00044985       0.00023148      -0.28191430      -0.22442922      -0.00954710       0.01500135       0.01503121      -0.00818229       0.02070092       0.00105027       0.08705568      -0.04604087
O       -6.04359437      11.82664086       8.33893519       0.00011253       0.00099107      -0.00011367      -0.28237506      -0.22564370      -0.00739523       0.01364164      -0.01539527      -0.03025039      -0.08559548       0.00400680      -0.02719538       0.02959865
O       -4.17678836      12.26360054      10.17828944       0.00111091      -0.00045194      -0.00057918      -0.28031462      -0.22351969       0.01983365       0.01218813       0.00257692       0.04029455       0.06455992       0.00488763      -0.05723181       0.01244168
Si      -2.62184331       8.59737089      14.46546632       0.00068500      -0.00067055       0.00007647       0.55673771       0.44394066       0.00007534      -0.00119331       0.00021444      -0.00251686       0.00565302      -0.00892167       0.00033626       0.01079182
Si      -6.13042550      10.64338837      12.65094764       0.00005703      -0.00076252      -0.00072835       0.55570766       0.44269773      -0.00108020       0.00113752      -0.00035202      -0.00724408      -0.00025873      -0.00685566      -0.00477326      -0.00325503
Si      -3.65806036      10.87639424      10.82727117      -0.00105871      -0.00028603       0.00046789       0.55727963       0.44377003       0.00176434      -0.00186959      -0.00013496       0.01266788      -0.00160340      -0.00773835       0.00388080      -0.00380514
O       -3.55573417       9.74188885      15.13131048      -0.00044489      -0.00008898      -0.00054922      -0.28197081      -0.22570182       0.00789640      -0.01495715      -0.01734451       0.03160905      -0.08163993       0.00321773       0.02349808       0.02939380
O       -1.69356727       9.23202407      13.29747102      -0.00046120      -0.00025174      -0.00023626      -0.28098535      -0.22418405      -0.02015267      -0.01557490       0.00247819      -0.04121360       0.05959164      -0.00011444       0.05938656       0.01468995
O       -2.19952608      11.11657591      11.48607499       0.00014365       0.00033251       0.00006242      -0.28043006      -0.22372092       0.01194601      -0.01479631       0.01711928       0.00908619       0.02137471       0.00016278      -0.08145297      -0.04042438
O       -4.67917387      10.37668364      11.98481537      -0.00014448       0.00092091      -0.00015188      -0.28219822      -0.22567707      -0.01145348       0.01416474       0.01614177      -0.00877825       0.01984393       0.00297608       0.08289819      -0.04017175
O       -6.01517791      11.74723481      13.83428165       0.00042409       0.00008649      -0.00004471      -0.28219695      -0.22580541      -0.00852934       0.01444180      -0.01777424      -0.03257419      -0.08070522      -0.00007768      -0.02370486       0.02764691
O       -4.13165350      12.27434940      15.62340822      -0.00074183       0.00015999       0.00013903      -0.28194790      -0.22574754       0.02065773       0.01297913       0.00096602       0.03814166       0.05861630      -0.00033211      -0.05949135       0.01223906
Si       7.30219175      -0.00657300       3.67387451       0.00116073      -0.00014474       0.00073819       0.55785703       0.44546821       0.00336638       0.00165188      -0.00264593       0.00665136       0.00135611      -0.01152460       0.00279520       0.01238094
Si       3.79447029       2.05112314       1.79493805       0.00097701       0.00015895       0.00064804       0.55571795       0.44219322       0.00071039      -0.00075483       0.00028397      -0.00701862      -0.00301355      -0.00912820      -0.00475580      -0.00530631
Si       6.29019695       2.28064788      -0.02938667       0.00054079       0.00043873      -0.00087070       0.55659158       0.44358098       0.00133576      -0.00254049      -0.00192307       0.01297520      -0.00038282      -0.00672934       0.00459432      -0.00029356
O        6.33487851       1.09137984       4.37171400      -0.00066977      -0.00030878       0.00035691      -0.28307626      -0.22789589       0.00895224      -0.01115154      -0.01713088       0.02600687      -0.07984389       0.01038746       0.02448472       0.02773390
O        8.21152967       0.66634660       2.50980172       0.00074924      -0.00097893       0.00057346      -0.28254369      -0.22599804      -0.01724001      -0.01350605       0.00074100      -0.04450597       0.06502132       0.00277913       0.05799130       0.01452545
O        7.73504477       2.52708538       0.65865879       0.00005361      -0.00009782       0.00083704      -0.28171821      -0.22456158       0.01034675      -0.01517668       0.01634094       0.00708613       0.02124883      -0.00147372      -0.08341228      -0.04249199
O        5.24374434       1.81234691       1.11817382      -0.00112529      -0.00066924      -0.00033198      -0.28234961      -0.22502909      -0.00898971       0.01495866       0.01550535      -0.00996999       0.01753057       0.00757698       0.08830844      -0.04302863
O        3.88739583       3.16387659       2.96909717       0.00043636       0.00007775      -0.00044541      -0.28186022      -0.22447444      -0.00887850       0.01722484      -0.01701574      -0.03340672      -0.08359382       0.00346354      -0.02382997       0.02633874
O        5.79345009       3.65235285       4.75587822      -0.00059148       0.00042365       0.00030349      -0.28068587      -0.22279734       0.01974647       0.01810167       0.00084135       0.03517937       0.07050898       0.00785799      -0.05921148       0.00965636
Si       7.34010854      -0.05862628       9.06655242      -0.00046703       0.00155580       0.00273213       0.55299635       0.44092280      -0.00228599      -0.00836661       0.00582345       0.00051084       0.00304163      -0.01428851       0.00363013       0.00230961
Si       3.79755954       2.16625427       7.36174015       0.00223702       0.00104835       0.00311482       0.54967256       0.44242414       0.00912536       0.00126275       0.00591357      -0.00254792      -0.03161720      -0.01955836      -0.00038768       0.00757536
Si       6.26821568       2.28430589       5.48179944       0.00093897      -0.00032405       0.00028634       0.55909453       0.44569486      -0.00231030      -0.00076332      -0.00338341       0.01424709      -0.00092299      -0.01112955       0.01238631      -0.00949215
O        6.34822048       1.00592778       9.75011318      -0.00003690      -0.00220551      -0.00106046      -0.28382332      -0.23076959       0.01187921      -0.01101329      -0.02126718       0.02454392      -0.07321061       0.00501490       0.02154087       0.03151806
O        8.24253265       0.61252014       7.89261075      -0.00046216       0.00068243      -0.00147986      -0.28108555      -0.22231960      -0.01819643      -0.01295622      -0.00262611      -0.04398302       0.06269080      -0.00226614       0.05948654       0.01618289
O        7.74732491       2.52078371       6.09923514      -0.00006243       0.00082094       0.00076587      -0.28168012      -0.22386451       0.01395257      -0.01222572       0.01395341       0.00758798       0.02588058       0.00326931      -0.08217550      -0.04188787
O        5.24806726       1.89945683       6.67295005      -0.00104909      -0.00115368      -0.00155965      -0.28192632      -0.22646491      -0.00690683       0.01924951       0.01348869      -0.00697374       0.02094430      -0.00112955       0.08372845      -0.04554523
O        3.82027688       3.27056030       8.53364228       0.00001721       0.00162890      -0.00018335      -0.29931204      -0.24883648       0.00560319       0.02146768      -0.00660662      -0.03428751      -0.05839251      -0.01387352      -0.01736182       0.01359434
O        5.99718505       3.57353698      10.08785892      -0.00049101       0.00121923      -0.00414253      -0.30207896      -0.25955487       0.02017079      -0.00399711      -0.00045551       0.04076020       0.05797258       0.01900482      -0.02773288       0.00175251
Si       7.35235231      -0.06144095      14.49287064       0.00059323      -0.00020681      -0.00259496       0.55573450       0.44221276       0.00187379       0.00093026      -0.00248445      -0.00066040       0.00499504      -0.00276331       0.00215121       0.00703086
Si       3.83066638       2.01966097      12.65994655       0.00092960      -0.00106604       0.00000567       0.55581229       0.44451656       0.00135457      -0.00480001      -0.00003618      -0.00576385      -0.00493857      -0.00948381      -0.00502983      -0.01415440
Si       6.34302298       2.21385669      10.83705604       0.00108456      -0.00022737       0.00281004       0.53930773       0.43258774      -0.00757973       0.01114415      -0.00415131       0.00427880       0.01515769      -0.00859593       0.00406486       0.01341330
O        6.42504370       1.09356986      15.14510871      -0.00005870      -0.00000703       0.00018157      -0.28114017      -0.22478127       0.00799631      -0.01417116      -0.01571985       0.03043864      -0.08260846       0.00651097       0.02519603       0.03150296
O        8.33314894       0.55699683      13.36358579      -0.00034515      -0.00073967       0.00075450      -0.28070213      -0.22365146      -0.01910321      -0.01595758       0.00104307      -0.03748866       0.06285728       0.00224508       0.05927515       0.01329056
O        7.81421394       2.37834561      11.50660600      -0.00034896       0.00136526      -0.00000478      -0.28244540      -0.22488780       0.01289274      -0.01802902       0.01040378       0.01197307       0.02404915       0.00030718      -0.08709833      -0.04550434
O        5.29213023       1.80074947      12.01250573      -0.00063550       0.00033185       0.00101894      -0.28267182      -0.22325911      -0.00236730       0.00881042       0.01638075      -0.01017034       0.01213679       0.00037475       0.08959980      -0.04791580
O        3.89563879       3.13124333      13.83854020       0.00012545       0.00011095       0.00043439      -0.28180864      -0.22374644      -0.00727532       0.01345255      -0.01834107      -0.03302060      -0.08296729       0.00166524      -0.01917849       0.02626843